BEGIN_CFG
 Size
    4
 AtomData:  id type       cartes_x      cartes_y      cartes_z
             1    0       0.000000      0.000000      0.000000
             2    1       1.705263      0.000000      0.000000
             3    1      -0.320000      0.940000      0.000000
             4    2       3.118421      0.000000      0.000000
 Energy
     -13384.471284871666
END_CFG

