BEGIN_CFG
 Size
    12
 Supercell
         3.673210      0.020616      0.241239
         1.100660     -1.917720     10.742000
         0.025027     -3.680820     -0.045759
 AtomData:  id type       cartes_x      cartes_y      cartes_z           fx          fy          fz
             1    0       1.776910     -3.378140      1.855480    -0.000073   -0.000087    0.000563
             2    0       3.601000     -1.527430      1.998990    -0.000035    0.000069    0.000437
             3    1       0.046360     -3.362130      0.070230     0.037616   -0.035738   -0.123859
             4    1       3.507450     -3.394160      3.640720    -0.037463    0.035753    0.123389
             5    1       3.232740     -3.418280      7.297700     0.047533    0.047721    0.004034
             6    1       1.868680     -1.513220      0.213590     0.045971   -0.027116   -0.123227
             7    1       1.660110     -1.562250      3.543120    -0.045936    0.027148    0.122883
             8    1       1.396700     -1.574900      7.200990    -0.047771   -0.047722   -0.003405
             9    1       1.540880     -3.413170      5.307570     0.006359   -0.008299    0.018744
            10    1       3.113590     -5.260830      9.145390    -0.006317    0.008277   -0.018870
            11    2       1.261390     -3.423220      8.990040     0.081599   -0.035794   -0.569434
            12    2       3.368060     -1.569960      5.508680    -0.081484    0.035787    0.568745
 Energy
        -72.626450420000
 PlusStress:  xx          yy          zz          yz          xz          xy
        -0.62062    -0.54717    -4.12044    -0.31319     0.60183     0.04897
 Feature   EFS_by	VASP
END_CFG
