BEGIN_CFG
 Size
    11
 Supercell
        -1.725830      1.027220      1.923520
         1.304720     -1.419890      1.929650
        14.802400     14.801900      1.333590
 AtomData:  id type       cartes_x      cartes_y      cartes_z           fx          fy          fz
             1    0      15.521300     13.229400      3.154970    -0.237000   -0.309571   -0.051951
             2    0       1.436180      0.836200      1.182560     0.452401    0.564210    0.106246
             3    0       2.471410      2.183630      3.402580    -0.088727   -0.114746   -0.020184
             4    0       3.905900      3.895190      1.764460    -0.000920   -0.001392   -0.000171
             5    0       4.919270      5.214060      3.979520     0.088163    0.113749    0.020072
             6    0       6.375630      6.954170      2.346370    -0.452534   -0.564867   -0.106284
             7    0       8.397520      7.942930      3.637250     0.240002    0.312425    0.052115
             8    0      10.213900     10.202400      4.061630     0.251766    0.402240    0.014361
             9    0      11.979100     11.997200      4.654120    -0.250481   -0.401894   -0.014699
            10    1       9.522480      9.273620      1.925460    -0.157664   -0.225079   -0.024123
            11    1      13.091900     13.318800      2.937010     0.154993    0.224925    0.024619
 Energy
        -46.386012330000
 PlusStress:  xx          yy          zz          yz          xz          xy
        11.02684    11.62013    10.20146    -0.22728     0.97304     1.19043
 Feature   EFS_by	VASP
END_CFG

BEGIN_CFG
 Size
    10
 Supercell
        -4.433200      2.375160      0.261340
        -2.412160     -4.934500      3.928420
        -0.884673      3.292670      3.592720
 AtomData:  id type       cartes_x      cartes_y      cartes_z           fx          fy          fz
             1    0      -6.008360     -2.992990      4.140030     0.000744    0.001563   -0.001237
             2    0      -2.585680     -1.713310      2.045140    -0.000749   -0.001693    0.001169
             3    1      -4.265620      2.948430      3.967310    -0.143508   -0.227424   -0.375152
             4    1      -2.049020      1.760860      3.836620    -0.143917   -0.227967   -0.375744
             5    1      -6.223630     -0.707240      3.977030     0.143707    0.227693    0.375409
             6    1      -4.007030     -1.894800      3.846360     0.143781    0.227885    0.375747
             7    2      -4.844650     -1.037290      6.106500    -0.063171   -0.105740   -0.104493
             8    2      -1.211390      0.903340      1.576500     0.064415    0.107790    0.102674
             9    2      -4.133420      0.647840      2.856020     0.034468    0.047850    0.150851
            10    2      -6.355820      1.593350      5.088320    -0.035771   -0.049958   -0.149224
 Energy
        -64.569912850000
 PlusStress:  xx          yy          zz          yz          xz          xy
        -3.10327    -0.42727    -1.73866    -2.82552    -1.38608     1.72159
 Feature   EFS_by	VASP
END_CFG

BEGIN_CFG
 Size
    4
 Supercell
        -1.393000      1.393030      1.970020
         1.393000     -1.393030      1.970020
         5.814170      5.814370      0.000000
 AtomData:  id type       cartes_x      cartes_y      cartes_z           fx          fy          fz
             1    0       4.033360      6.789790      1.970020     0.722606    0.722656    0.000000
             2    0       1.484010      1.454240      1.970020    -0.000274    0.000001   -0.000000
             3    0       1.962680      4.719120      1.970020    -0.722869   -0.722675   -0.000000
             4    1       4.391060      4.361420      1.970020     0.000536    0.000018   -0.000000
 Energy
        -17.484452990000
 PlusStress:  xx          yy          zz          yz          xz          xy
        -1.06339    -1.06463     0.39538    -0.00000     0.00000    -1.45963
 Feature   EFS_by	VASP
END_CFG

BEGIN_CFG
 Size
    9
 Supercell
        -1.861290      1.862230      1.862100
         6.047640      3.023230      3.021530
         3.023050      6.046020     -3.024890
 AtomData:  id type       cartes_x      cartes_y      cartes_z           fx          fy          fz
             1    0       1.405930      7.852310     -1.218750     0.247707    0.123855    0.123671
             2    0       0.220510      2.840200     -0.183560    -0.000175   -0.000211    0.000007
             3    0       7.038960      8.115330      1.356260     0.046167   -0.046088    0.092261
             4    0       3.243930      5.863150     -0.184740     0.000156    0.000069    0.000150
             5    0       4.725110      8.115150     -0.956420    -0.092435   -0.046057   -0.046299
             6    0       1.255310      4.829330      1.653980    -0.123939    0.123791   -0.247670
             7    0       4.015610      4.382400      2.067600     0.045977    0.092215   -0.046279
             8    0       4.278890      7.701300      1.803930    -0.124046   -0.247869    0.123898
             9    1       2.313870      3.771410      3.770100     0.000589    0.000295    0.000261
 Energy
        -36.312933150000
 PlusStress:  xx          yy          zz          yz          xz          xy
        -3.34914    -3.34843    -3.34850     0.21062    -0.21054    -0.21143
 Feature   EFS_by	VASP
END_CFG

BEGIN_CFG
 Size
    1
 Supercell
         1.436780     -1.436780     -1.436780
        -1.436780     -1.436780      1.436780
        -1.436780      1.436780     -1.436780
 AtomData:  id type       cartes_x      cartes_y      cartes_z           fx          fy          fz
             1    1       0.000000      0.000000      0.000000     0.000000    0.000000    0.000000
 Energy
         -5.312327120000
 PlusStress:  xx          yy          zz          yz          xz          xy
        -1.06707    -1.06707    -1.06707    -0.00006    -0.00006    -0.00006
 Feature   EFS_by	VASP
END_CFG

BEGIN_CFG
 Size
    10
 Supercell
         2.900880      0.303584      2.775160
        -1.520240     -5.371020      5.097030
         3.060230     -3.534900     -2.812170
 AtomData:  id type       cartes_x      cartes_y      cartes_z           fx          fy          fz
             1    0       5.572630     -3.091460      0.386950     0.039616    0.070218   -0.045100
             2    0       0.103860     -3.766260      3.256930     0.198162    0.097783   -0.216595
             3    0       1.405820     -1.404430      1.637640    -0.197882   -0.098046    0.216339
             4    0       1.898160     -5.310540      4.470600    -0.039546   -0.070116    0.045149
             5    0       1.653430     -5.556180      1.832970     0.019224    0.304439   -0.052196
             6    0       2.916490     -3.149410      0.249430    -0.019625   -0.304003    0.052510
             7    2       3.006980     -3.249140      3.086050    -0.181391   -0.329651    0.216748
             8    2      -0.254320     -6.767550      3.959700     0.049398    0.086696   -0.055241
             9    2       3.304000     -7.309060      3.219730    -0.049721   -0.087260    0.055460
            10    2       4.463810     -5.152860      1.771500     0.181767    0.329939   -0.217074
 Energy
        -56.392904980000
 PlusStress:  xx          yy          zz          yz          xz          xy
         3.00478     0.04106     2.56245     1.54704     2.19426    -0.97907
 Feature   EFS_by	VASP
END_CFG

BEGIN_CFG
 Size
    5
 Supercell
         0.019579      2.028030      1.837290
         5.369640      1.775980      0.013771
        -2.339900      2.078440     -4.322370
 AtomData:  id type       cartes_x      cartes_y      cartes_z           fx          fy          fz
             1    0       4.948100      1.973090     -0.191040    -0.068748   -0.495797    0.544576
             2    0       2.036940      1.610270      0.228740    -0.341465    0.226210   -0.222431
             3    0       3.109810      4.197950     -0.597760     0.341383   -0.226164    0.222378
             4    0       0.179070      1.807090     -2.015270     0.068676    0.495844   -0.544608
             5    1       1.403420      3.943330     -2.345690     0.000154   -0.000093    0.000084
 Energy
        -21.298161570000
 PlusStress:  xx          yy          zz          yz          xz          xy
         0.97581     1.89469     1.83867    -0.63484    -0.04182     0.02401
 Feature   EFS_by	VASP
END_CFG

BEGIN_CFG
 Size
    11
 Supercell
        -2.751080     -2.854270      0.041093
         4.396220     -1.544330     -4.188880
         4.876140     -4.682260      1.221100
 AtomData:  id type       cartes_x      cartes_y      cartes_z           fx          fy          fz
             1    0       2.267550     -4.953650     -3.724620     0.012246   -0.013609   -0.084799
             2    0       3.479810     -6.070170     -0.118120     0.000099    0.000022   -0.000002
             3    0       4.212160     -4.048750     -1.921610    -0.012375    0.013663    0.085023
             4    0       5.315220     -7.855920     -1.278560     0.009028   -0.005476    0.204130
             5    0       6.040630     -5.828750     -3.146560    -0.008921    0.005423   -0.203953
             6    1       3.770730     -6.384780     -2.495430     0.088481   -0.091912   -0.302748
             7    1       0.124020     -2.835830     -0.127040     0.311025   -0.303871   -0.226301
             8    1       5.761050     -5.524730     -0.746180     0.213213   -0.205309    0.131201
             9    1       3.949660     -3.761330      0.468850    -0.212989    0.205644   -0.131383
            10    1       1.959470     -4.622240     -1.330310    -0.310961    0.304236    0.226081
            11    1       2.708970     -2.617620     -3.150800    -0.088847    0.091188    0.302751
 Energy
        -56.779961420000
 PlusStress:  xx          yy          zz          yz          xz          xy
         7.37797     7.32264     7.51127    -0.06672     0.03345     0.17091
 Feature   EFS_by	VASP
END_CFG

BEGIN_CFG
 Size
    6
 Supercell
         2.788180     -2.787850      0.453796
        -2.775250     -2.775640     -0.000432
         1.856020     -1.854930     -5.443370
 AtomData:  id type       cartes_x      cartes_y      cartes_z           fx          fy          fz
             1    0      -2.733870     -2.778830     -0.035560    -0.038919    0.038782    0.469723
             2    0       1.594130     -4.330760     -1.449760     0.007057   -0.007073   -0.086250
             3    0       0.357810     -5.869580     -3.307300    -0.007251    0.007217    0.087186
             4    0       1.897630     -4.633650     -5.175310     0.038926   -0.038884   -0.470770
             5    2      -1.195710     -4.316550     -1.577210     0.110176   -0.109758   -1.327258
             6    2       0.359470     -3.095930     -3.633650    -0.109988    0.109717    1.327370
 Energy
        -31.937558420000
 PlusStress:  xx          yy          zz          yz          xz          xy
         4.29869     4.29855     9.32776     0.33084    -0.33209    -0.98928
 Feature   EFS_by	VASP
END_CFG

BEGIN_CFG
 Size
    8
 Supercell
        -1.302800      1.303360      2.330150
         2.145130      2.155660     -0.009086
        -6.740760      6.740960    -11.301400
 AtomData:  id type       cartes_x      cartes_y      cartes_z           fx          fy          fz
             1    0      -7.980650      8.007940     -8.943320    -0.144431    0.139729   -0.134358
             2    0      -2.006630      2.033200     -2.271880     0.144315   -0.140002    0.134108
             3    0      -3.269680      5.446730     -6.777220     0.000058   -0.000258    0.000071
             4    2      -0.550700      2.727920      0.038530     0.000305   -0.000165    0.000808
             5    2      -2.614500      4.791470     -2.264330     0.404617   -0.393993    0.458379
             6    2      -3.968820      3.996010     -4.467600    -0.504697    0.496192   -0.543616
             7    2      -6.018470      6.045150     -6.747600     0.504744   -0.495982    0.543769
             8    2      -5.227650      7.405350     -8.959960    -0.404911    0.394479   -0.459161
 Energy
        -52.464240410000
 PlusStress:  xx          yy          zz          yz          xz          xy
         1.66692     1.13761     2.50132     0.63308    -0.26466    -0.54737
 Feature   EFS_by	VASP
END_CFG

BEGIN_CFG
 Size
    3
 Supercell
        -3.063730      3.063730      0.000000
         0.000000     -3.063730     -3.063730
        -1.641510     -1.641510      1.641510
 AtomData:  id type       cartes_x      cartes_y      cartes_z           fx          fy          fz
             1    0      -1.594120     -1.594120      1.594120     0.451759    0.451760   -0.451764
             2    0      -3.184210     -0.120480      0.120480    -0.451647   -0.451653    0.451656
             3    2      -1.568410     -1.568410     -1.495320    -0.000113   -0.000107    0.000109
 Energy
        -15.936449380000
 PlusStress:  xx          yy          zz          yz          xz          xy
         1.44213     1.44213     1.44212    -0.39958    -0.39959     0.39957
 Feature   EFS_by	VASP
END_CFG

BEGIN_CFG
 Size
    12
 Supercell
         4.305690      2.435120     -0.000056
        -0.010064      5.062750     -0.000050
         0.000020      0.000039      8.293260
 AtomData:  id type       cartes_x      cartes_y      cartes_z           fx          fy          fz
             1    0       0.651260      4.584890      8.293200     0.059749    0.682989   -0.000106
             2    0       4.258130      3.217490      4.146570     0.628007   -0.315514    0.000062
             3    0       0.665030      2.180880     -0.000020     0.050288   -0.606421   -0.000118
             4    0       2.213500      4.472900      4.146570    -0.508271    0.359514    0.000073
             5    0       1.572120      5.936250      2.073250     0.050969    0.031818   -0.001093
             6    0       1.572150      5.936270      6.219880     0.050889    0.031688    0.000881
             7    1       2.176150      2.047510      4.146610    -0.057956   -0.137432    0.000039
             8    1       2.881350      5.838600     -0.000060    -0.155526    0.024900   -0.000139
             9    2       2.895730      3.345930      1.551330    -0.036438   -0.010971   -0.238717
            10    2       2.895740      3.345950      6.741810    -0.036482   -0.010994    0.238464
            11    2       0.056110      3.349320      2.595200    -0.022644   -0.024620    0.242438
            12    2       0.056130      3.349330      5.697980    -0.022584   -0.024956   -0.241787
 Energy
        -70.525508890000
 PlusStress:  xx          yy          zz          yz          xz          xy
        -0.66577    -1.03850    -2.88777     0.00089     0.00086    -0.17984
 Feature   EFS_by	VASP
END_CFG

BEGIN_CFG
 Size
    12
 Supercell
         2.258420      3.964140     -1.660390
         5.122100     -4.749790     -1.762490
        -0.322063      0.085803     -5.876580
 AtomData:  id type       cartes_x      cartes_y      cartes_z           fx          fy          fz
             1    0      -0.277310      0.081050     -5.879420     0.000139   -0.000127    0.000078
             2    1       1.932180      1.176710     -1.610320     0.128215    0.002353   -0.065949
             3    1       1.654300     -1.534240     -1.566980     0.092662   -0.069108   -0.003915
             4    1       3.707380     -0.394500     -3.193280    -0.046130    0.019431    0.005567
             5    1       3.454850     -3.170580     -3.118040    -0.064959    0.024370   -0.019942
             6    1       5.369710     -1.858020     -4.790070    -0.099613   -0.168315    0.011847
             7    1      -0.116160      0.038200     -2.941210    -0.000076    0.000264    0.000607
             8    1       1.778770      1.148070     -4.515140     0.098991    0.167648   -0.012125
             9    1       3.693180      2.460950     -6.187140     0.064990   -0.024486    0.019877
            10    1       3.441030     -0.315530     -6.111940     0.046203   -0.019821   -0.005578
            11    1       3.235290     -3.139350     -6.077910    -0.092334    0.069443    0.003362
            12    1       5.216320     -1.886630     -7.694990    -0.128089   -0.001653    0.066170
 Energy
        -58.097737490000
 PlusStress:  xx          yy          zz          yz          xz          xy
       -32.40301   -32.64170   -34.95972     0.58661     0.08347     0.07417
 Feature   EFS_by	VASP
END_CFG

BEGIN_CFG
 Size
    8
 Supercell
         1.107030      5.039200     -1.194350
         5.045120      1.096210      1.188040
         3.186460     -3.164410     -2.800940
 AtomData:  id type       cartes_x      cartes_y      cartes_z           fx          fy          fz
             1    0       1.539150      4.655690     -1.532140     0.017767    0.042482    0.037894
             2    1       1.030880      2.159850     -1.008870     0.040893   -0.029242    0.018255
             3    1       3.057060      3.043080     -2.894680     0.026970   -0.033619    0.026980
             4    1       3.018900      0.168860      0.194230    -0.025002    0.041145   -0.023173
             5    1       5.044790      1.052550     -1.691450    -0.038225    0.033601   -0.014301
             6    2       7.605790      1.608310     -1.186460     0.050328    0.115892    0.109983
             7    2       3.515870      2.701440     -0.325700    -0.063547   -0.143142   -0.130453
             8    2       5.639030      3.585390     -2.372480    -0.009184   -0.027115   -0.025186
 Energy
        -52.264390760000
 PlusStress:  xx          yy          zz          yz          xz          xy
        -7.26995    -7.34773    -7.28776    -0.07097    -0.11540    -0.00871
 Feature   EFS_by	VASP
END_CFG

BEGIN_CFG
 Size
    9
 Supercell
        -1.147900      2.589740      1.413950
         4.522190      2.736000      1.748930
         4.279020      6.522060     -2.221000
 AtomData:  id type       cartes_x      cartes_y      cartes_z           fx          fy          fz
             1    1      -0.987690      2.620720      1.436770    -0.709554   -0.398793   -0.354086
             2    1       0.676040      3.812180      0.326290     0.097227    0.779765   -0.788122
             3    1       6.968330      7.947330      0.668870    -0.018130   -0.009169   -0.060774
             4    1       3.499170      6.932400      0.011900     0.709186    0.398686    0.354494
             5    1       5.492250      8.274110     -1.106220     0.018414    0.009419    0.060934
             6    1       1.835440      5.740960      1.122380    -0.096927   -0.779431    0.787886
             7    1       4.090790      4.849700      0.891830     0.000015    0.000052   -0.000455
             8    2       5.681460      6.032820     -0.188090     2.121736    1.287519   -1.104333
             9    2       2.500120      3.666570      1.971760    -2.121967   -1.288049    1.104456
 Energy
        -54.192064260000
 PlusStress:  xx          yy          zz          yz          xz          xy
        21.96685    31.66823    23.78208    -0.30360     1.40803     1.64257
 Feature   EFS_by	VASP
END_CFG

BEGIN_CFG
 Size
    10
 Supercell
        -2.828690     -2.859530     -0.021573
         0.008410      2.850050     -2.856750
         2.812920     -5.624310     -5.623920
 AtomData:  id type       cartes_x      cartes_y      cartes_z           fx          fy          fz
             1    0      -2.677100     -0.121580     -2.988930    -0.407387    0.423931    0.419796
             2    0       0.024470     -2.810350     -5.674190     0.149627   -0.129864   -0.120304
             3    1      -1.450290     -1.356020     -1.366240     0.107089   -0.108668   -0.106790
             4    1       0.020810      0.023220     -2.833780     0.100726   -0.094497   -0.081902
             5    1      -1.338530     -1.454140     -4.317600     0.080296   -0.047429   -0.047459
             6    1      -1.379640     -4.249960     -4.264950     0.034914   -0.068403   -0.068111
             7    1       1.426640     -4.222060     -4.226090     0.029126    0.002024    0.011373
             8    1       1.458520     -4.234380     -7.094580    -0.085507    0.090133    0.095675
             9    2      -0.142740     -2.652240     -2.656650     1.176693   -1.232489   -1.253214
            10    2       0.084090     -5.711410     -5.722550    -1.185576    1.165263    1.150935
 Energy
        -60.148957230000
 PlusStress:  xx          yy          zz          yz          xz          xy
        12.52123    12.30227    12.22666     1.58158    -1.80018    -1.67520
 Feature   EFS_by	VASP
END_CFG

BEGIN_CFG
 Size
    12
 Supercell
         0.000000      3.877450      0.000000
         4.082440      0.000000      4.565950
         5.492840      0.000000     -3.239780
 AtomData:  id type       cartes_x      cartes_y      cartes_z           fx          fy          fz
             1    1       3.521950      0.000000      3.826270    -0.352334   -0.000040   -0.177650
             2    1       2.444730      1.938720      1.078770     0.678738    0.000085   -0.414162
             3    1       3.695400      0.000000      1.289190     0.179022   -0.000069    0.105866
             4    1       6.064060      0.000000      1.491390     0.478393   -0.000033   -0.438727
             5    1       6.885650      1.938720      2.902160     0.061844    0.000067    0.400152
             6    2       4.824190      1.938720      0.067630    -0.191482    0.000029   -0.032312
             7    2       7.516640      1.938720      0.503100    -0.126577    0.000039    0.685732
             8    2       6.711670      0.000000     -1.068620     0.358042   -0.000062    1.048924
             9    2       4.542140      1.938720      2.591720    -0.486160    0.000045   -0.869698
            10    2       1.833450      0.000000     -0.448680     0.500255   -0.000060    0.058711
            11    2       4.121030      0.000000     -1.716030    -0.037696   -0.000065   -0.556369
            12    2       5.743350      1.938720     -2.497150    -1.062046    0.000065    0.189531
 Energy
        -83.083423680000
 PlusStress:  xx          yy          zz          yz          xz          xy
        25.63575    27.16357    21.16254    -0.00002     1.47258    -0.00002
 Feature   EFS_by	VASP
END_CFG

BEGIN_CFG
 Size
    6
 Supercell
         3.468480      0.479210      0.000000
         0.990383      5.544230      0.000000
         0.000000      0.000000      3.346350
 AtomData:  id type       cartes_x      cartes_y      cartes_z           fx          fy          fz
             1    0       1.711420      0.714070      1.673180     0.100045   -0.778518   -0.000062
             2    1       3.477920      0.718410      0.000000    -0.096883    0.716381    0.000055
             3    1       1.491650      2.272500      0.000000    -0.092209    0.680263    0.000082
             4    1       2.981070      4.257790      0.000000    -0.062638    0.430937    0.000056
             5    1       3.221130      2.551260      1.673180    -0.016227    0.113180   -0.000067
             6    2       1.241480      4.054710      1.673180     0.167913   -1.162243   -0.000064
 Energy
        -35.523809610000
 PlusStress:  xx          yy          zz          yz          xz          xy
        12.43367    11.81850    13.94369     0.00005    -0.00002     0.22650
 Feature   EFS_by	VASP
END_CFG

BEGIN_CFG
 Size
    9
 Supercell
         0.000194      3.424810      0.497027
         3.588130      1.215700      3.777530
         3.587690     -1.216060     -3.777850
 AtomData:  id type       cartes_x      cartes_y      cartes_z           fx          fy          fz
             1    1       7.059070      3.424450      0.496720     2.936383    0.000024   -0.000761
             2    1       4.805330      3.112670      2.713730    -0.000767   -0.460298    2.992128
             3    1       5.972480      1.550570      1.396440     1.229988   -0.192311    1.253528
             4    1       4.804970      0.311670     -2.217140     0.000409    0.460033   -2.991531
             5    1       2.551430      3.424680      0.496920    -2.937023    0.000057    0.000720
             6    1       3.637810      1.873760     -0.899850    -1.229314    0.192455   -1.254377
             7    1       5.972420      1.873640     -0.899940     1.229901    0.192292   -1.254213
             8    1       3.637890      1.550680      1.396540    -1.230087   -0.192260    1.255199
             9    2       4.805250      3.424570      0.496830     0.000511    0.000009   -0.000692
 Energy
        -50.914902550000
 PlusStress:  xx          yy          zz          yz          xz          xy
        22.17938    22.32429    23.46707    -0.62214     0.00080    -0.00011
 Feature   EFS_by	VASP
END_CFG

BEGIN_CFG
 Size
    11
 Supercell
         0.046376      2.716700     -2.768990
         2.821540     -0.045281      2.699950
         6.852560     -4.109200     -4.106900
 AtomData:  id type       cartes_x      cartes_y      cartes_z           fx          fy          fz
             1    0       6.818060     -4.047670     -4.045340     0.080589   -0.141681   -0.097439
             2    0       4.308060      1.249850     -1.490410    -0.079965    0.142100    0.097882
             3    0       6.973830     -1.421550     -1.417900     0.000221    0.000303    0.000279
             4    1       1.427540      1.364190     -1.377810    -0.030659    0.052302    0.033711
             5    1       2.846040     -0.052800     -0.051030     0.030189   -0.052536   -0.033902
             6    1       2.780340      0.003610     -2.738160     0.245559   -0.289410   -0.271113
             7    1       4.165730     -1.380100     -1.378160     0.005344   -0.034311   -0.012635
             8    1       5.646280     -0.096020     -2.836080    -0.290070    0.344563    0.313972
             9    1       5.479890     -2.701780     -2.699660     0.289316   -0.344700   -0.314052
            10    1       6.960360     -1.417720     -4.157590    -0.004797    0.034540    0.012807
            11    1       8.345840     -2.801400     -2.797560    -0.245727    0.288831    0.270491
 Energy
        -58.271182990000
 PlusStress:  xx          yy          zz          yz          xz          xy
        17.10451    17.73424    17.24657     4.23847    -1.44627    -3.59149
 Feature   EFS_by	VASP
END_CFG

BEGIN_CFG
 Size
    12
 Supercell
         0.122831      2.298450      3.552500
        10.846100     -1.661060      3.239980
        -0.227532      1.947360     -3.755460
 AtomData:  id type       cartes_x      cartes_y      cartes_z           fx          fy          fz
             1    1       0.142190      0.036310     -0.021440    -0.206121   -0.051090    0.027003
             2    1       1.688780      2.112900     -1.406830     0.000025   -0.000582   -0.000207
             3    1       3.462910      2.242150      0.963240     0.206616    0.052075   -0.027537
             4    1       5.899420      2.328700      0.824160     0.553062   -0.043235    0.007483
             5    1       8.324220      0.236050     -0.397840    -0.552806    0.043297   -0.006542
             6    2       0.857440      2.222720      1.069470     0.829511   -0.034548   -0.035195
             7    2       2.870480      2.354180      3.424830    -0.831043    0.034421    0.035163
             8    2       4.516050      0.215580      2.232440    -1.019606   -0.058358    0.035398
             9    2       5.680700      2.423850      3.285050     0.419449    0.082676   -0.061558
            10    2       7.225590      0.308690      2.090890    -0.000063   -0.000211   -0.000032
            11    2       8.893300      0.491990      4.449230    -0.419200   -0.082845    0.061164
            12    2       9.935120      0.401810      1.949340     1.020175    0.058400   -0.035139
 Energy
        -84.759852330000
 PlusStress:  xx          yy          zz          yz          xz          xy
         7.18829     2.07670     2.20705     0.21049    -0.20745    -0.11088
 Feature   EFS_by	VASP
END_CFG

BEGIN_CFG
 Size
    6
 Supercell
        -4.040610      2.400510      0.237019
         0.084598     -4.947650     -0.151846
        -1.408470      2.325830      4.137210
 AtomData:  id type       cartes_x      cartes_y      cartes_z           fx          fy          fz
             1    0      -5.348330      0.603850      4.246470     0.000226    0.000020   -0.000033
             2    1      -1.961850     -0.448400      0.066680     0.000033   -0.000132    0.000177
             3    1      -1.919550     -2.922230     -0.009240     0.000075    0.000091    0.000137
             4    1      -2.623790     -1.759320      2.059360     0.000119    0.000030   -0.000055
             5    2      -1.375970      0.723240      2.569570     0.278478    0.003115    0.094505
             6    2      -3.956210      0.705780      1.700980    -0.278932   -0.003123   -0.094732
 Energy
        -38.426593880000
 PlusStress:  xx          yy          zz          yz          xz          xy
         3.26571    -2.12197    -1.51560     0.01399     1.81226     0.03101
 Feature   EFS_by	VASP
END_CFG

BEGIN_CFG
 Size
    12
 Supercell
        -2.457150     -2.457240     -0.000112
        -0.521988      0.522236     -5.821720
         4.209830     -4.209460     -4.655810
 AtomData:  id type       cartes_x      cartes_y      cartes_z           fx          fy          fz
             1    0       1.215910     -6.106190    -10.426200    -0.069536    0.069347    0.045637
             2    0      -0.985230     -1.448440     -1.840690     0.001412   -0.000282    0.000664
             3    0      -1.955620     -2.935090     -3.732830     0.071247   -0.071408   -0.045882
             4    0      -0.551030     -4.339550     -5.431830     0.046681   -0.046638    0.361174