BEGIN_CFG
 Size
    4
 Supercell
         2.679170      0.000000      0.000000
        -1.339590      2.320230      0.000000
         1.339590     -0.773410      8.750140
 AtomData:  id type       cartes_x      cartes_y      cartes_z           fx          fy          fz
             1    0       0.000000      0.000000      0.000000    -0.000393    0.000230   -0.434347
             2    0       1.339590      0.773410      6.562600     0.000388   -0.000227    0.436487
             3    1       1.339590      0.773410      2.187530     0.001067   -0.000620   -1.439312
             4    1       2.679170     -0.000000      4.375070    -0.001063    0.000617    1.437172
 Energy
        -17.856510690000
 PlusStress:  xx          yy          zz          yz          xz          xy
        -1.37120    -1.37867    -0.85722    -0.00097     0.00167    -0.00652
END_CFG

