BEGIN_CFG
 Size
    3
 Supercell
         8.000000      0.000000      0.000000
         0.000000      8.000000      0.000000
         0.000000      0.000000      8.000000
 AtomData:  id type       cartes_x      cartes_y      cartes_z           fx          fy          fz
             1    0      -0.028284      0.000000     -0.028284  -485.101102    0.000000 -485.101102
             2    0       3.020368      0.000000      0.007916   261.065832    0.000000  224.035270
             3    0       0.007916      0.000000      3.020368   224.035270    0.000000  261.065832
 Energy
       -265.798871255746
 PlusStress:  xx          yy          zz          yz          xz          xy
      1185.95355     0.00000  1185.95355     0.00000   689.10070     0.00000
 Feature   EFS_by	MultiMTP93
 Feature   ID	-1
 Feature   MV_grade	5932.637220
END_CFG

BEGIN_CFG
 Size
    4
 Supercell
         0.000000      3.074810     -3.074810
        -3.074810      0.000000      3.074810
         3.074810      3.074810      0.000000
 AtomData:  id type       cartes_x      cartes_y      cartes_z           fx          fy          fz
             1    0       0.000000      0.000000      0.000000    -0.000000   -0.000000   -0.000000
             2    1      -1.537400      1.537400      1.537400    -0.000031    0.000050    0.000031
             3    1       0.000000      3.074810      0.000000    -0.000000    0.000000   -0.000000
             4    1       1.537400      4.612220     -1.537400     0.000032   -0.000050   -0.000031
 Energy
        -19.363099730000
 PlusStress:  xx          yy          zz          yz          xz          xy
        -0.40594    -0.40594    -0.40594     0.00009    -0.00002    -0.00008
 Feature   ID	-1
END_CFG

BEGIN_CFG
 Size
    6
 Supercell
         1.850030      3.682490      1.850040
        -3.778050      1.894070      1.902380
        -1.902380     -1.894070      3.778050
 AtomData:  id type       cartes_x      cartes_y      cartes_z           fx          fy          fz
             1    0      -0.024060     -0.000000      0.024070    -0.000416   -0.000007    0.000370
             2    0      -0.021720      1.841240      1.871760     0.000011    0.000014   -0.000032
             3    0      -0.019380      3.682490      3.719450     0.000397   -0.000016   -0.000384
             4    0      -1.936920      3.682490      5.636990     0.000022   -0.000012   -0.000022
             5    1      -1.914300      1.841240      3.764330     0.003476   -0.000006   -0.003397
             6    1      -3.809560      1.841240      5.659600    -0.003490    0.000027    0.003465
 Energy
        -25.831608840000
 PlusStress:  xx          yy          zz          yz          xz          xy
        -0.12875    -0.07587    -0.12872    -0.01116     0.00860    -0.01125
END_CFG

BEGIN_CFG
 Size
    6
 Supercell
         1.921800      1.921800      0.000000
        -7.687190      7.687190      7.687190
         0.000000     -1.921800      1.921800
 AtomData:  id type       cartes_x      cartes_y      cartes_z           fx          fy          fz
             1    0       0.000000      0.000000      0.000000    -0.163396    0.163397    0.163396
             2    0       0.000000      1.921800      1.921800     0.163483   -0.163485   -0.163484
             3    1      -1.921800      1.921800      3.843600     0.626000   -0.625999   -0.625998
             4    1      -3.843600      3.843600      3.843600    -0.000909    0.000896    0.000896
             5    1      -3.843600      5.765390      5.765390     0.001049   -0.001025   -0.001026
             6    1      -5.765390      5.765390      7.687190    -0.626228    0.626216    0.626216
 Energy
        -28.247741710000
 PlusStress:  xx          yy          zz          yz          xz          xy
        -1.57196    -1.57198    -1.57196     0.08659    -0.08655    -0.08659
 Feature   ID	-1
END_CFG

BEGIN_CFG
 Size
    4
 Supercell
         0.000000      3.007270     -3.007270
        -3.007270      0.000000      3.007270
         3.007270      3.007270      0.000000
 AtomData:  id type       cartes_x      cartes_y      cartes_z           fx          fy          fz
             1    0       0.000000      0.000000      0.000000    -0.000008   -0.000025    0.000008
             2    0      -1.503630      1.503630      1.503630    -0.000025    0.000020    0.000024
             3    1       0.000000      3.007270      0.000000     0.000004   -0.000026   -0.000002
             4    1       1.503630      4.510900     -1.503630     0.000029    0.000031   -0.000030
 Energy
        -17.981225700000
 PlusStress:  xx          yy          zz          yz          xz          xy
        -1.60486    -1.60486    -1.60483     0.00014     0.00010    -0.00011
 Feature   ID	-1
END_CFG

BEGIN_CFG
 Size
    6
 Supercell
        -0.272374      3.542510     -2.863210
         0.289651     -3.716960     -2.801250
        -4.262070      1.474400     -1.447710
 AtomData:  id type       cartes_x      cartes_y      cartes_z           fx          fy          fz
             1    0      -4.213690      1.531410     -1.526350    -0.182597   -0.001295    0.207555
             2    0      -3.075340      3.384590     -2.941930     0.176076    0.091614    0.133904
             3    1      -1.494810      1.454850     -4.281940    -0.007946    0.168450    0.028057
             4    1      -4.237500      1.354470     -4.168900    -0.021723   -0.087932   -0.283788
             5    1      -1.226030     -1.943120     -4.294300    -0.015014   -0.067395    0.127048
             6    1      -2.757700     -0.320710     -2.738570     0.051204   -0.103442   -0.212776
 Energy
        -28.607053630000
 PlusStress:  xx          yy          zz          yz          xz          xy
        -0.49027    -1.37018     0.27618     1.34872     0.00075    -0.20644
END_CFG

BEGIN_CFG
 Size
    3
 Supercell
         8.000000      0.000000      0.000000
         0.000000      8.000000      0.000000
         0.000000      0.000000      8.000000
 AtomData:  id type       cartes_x      cartes_y      cartes_z           fx          fy          fz
             1    0       0.000000      0.000000      0.000000  -746.474807    0.000000 -746.474807
             2    0       3.000000      0.000000      0.000000   537.561162    0.000000  208.913644
             3    0       0.000000      0.000000      3.000000   208.913644    0.000000  537.561162
 Energy
       -211.628282122222
 PlusStress:  xx          yy          zz          yz          xz          xy
      1612.68349     0.00000  1612.68349     0.00000   626.74093     0.00000
 Feature   EFS_by	MultiMTP93
 Feature   ID	-1
 Feature   MV_grade	63271.247535
END_CFG

BEGIN_CFG
 Size
    4
 Supercell
         0.000000      0.000000      3.008480
         0.000000      3.008480      0.000000
        -6.489210      0.000000      0.000000
 AtomData:  id type       cartes_x      cartes_y      cartes_z           fx          fy          fz
             1    0      -0.000000      0.000000      0.000000     0.000020    0.000000   -0.000000
             2    1      -1.500240      1.504240      1.504240    -0.000112    0.000000   -0.000000
             3    1      -3.244600      0.000000      0.000000     0.000100   -0.000000    0.000000
             4    1      -4.988970      1.504240      1.504240    -0.000008   -0.000000   -0.000000
 Energy
        -19.500796280000
 PlusStress:  xx          yy          zz          yz          xz          xy
         0.08535     1.04427     1.04427     0.00000    -0.00000    -0.00000
END_CFG

BEGIN_CFG
 Size
    5
 Supercell
         1.861030     -1.365840      1.521330
         1.861030      1.521330     -1.365840
         1.402560      7.109410      7.109410
 AtomData:  id type       cartes_x      cartes_y      cartes_z           fx          fy          fz
             1    0       3.722060      0.155500      0.155500     0.000033   -0.000097   -0.000097
             2    1       1.765850      1.367320      1.367320     0.010926    0.126449    0.126449
             3    1       3.536940      2.924550      2.924550    -0.009796    0.054338    0.054338
             4    1       1.587680      4.340360      4.340360     0.009804   -0.054165   -0.054164
             5    1       3.358780      5.897580      5.897580    -0.010967   -0.126526   -0.126527
 Energy
        -24.739734760000
 PlusStress:  xx          yy          zz          yz          xz          xy
         1.37093     2.93642     2.93643    -0.09964     0.26699     0.26699
END_CFG

BEGIN_CFG
 Size
    2
 Supercell
         1.423630     -1.587580      1.587580
         1.423630      1.587580     -1.587580
         0.000000      3.068830      3.068830
 AtomData:  id type       cartes_x      cartes_y      cartes_z           fx          fy          fz
             1    0       2.847250      3.068470      3.068470     0.000031    0.005543    0.005545
             2    1       1.423630      1.534770      1.534770    -0.000031   -0.005543   -0.005545
 Energy
         -9.019162670000
 PlusStress:  xx          yy          zz          yz          xz          xy
        -0.09892    -0.07734    -0.07733     0.09686     0.00000    -0.00000
END_CFG

BEGIN_CFG
 Size
    2
 Supercell
         0.000000      0.000000      3.007270
         0.000000      3.007270      0.000000
        -3.007270      0.000000      0.000000
 AtomData:  id type       cartes_x      cartes_y      cartes_z           fx          fy          fz
             1    0       0.000000      0.000000      0.000000     0.000032   -0.000031   -0.000031
             2    1      -1.503630      1.503630      1.503630    -0.000032    0.000031    0.000031
 Energy
         -9.183657970000
 PlusStress:  xx          yy          zz          yz          xz          xy
        -0.08722    -0.08723    -0.08723     0.00000    -0.00000     0.00000
 Feature   ID	-1
END_CFG

BEGIN_CFG
 Size
    3
 Supercell
         1.651920     -1.387070      1.503730
         1.651920      1.503730     -1.387070
         1.422530      4.320910      4.320910
 AtomData:  id type       cartes_x      cartes_y      cartes_z           fx          fy          fz
             1    0       3.301910      0.147230      0.147230    -0.007612    0.055235    0.055233
             2    0       1.577370      1.448610      1.448610     0.007655   -0.055073   -0.055074
             3    1       3.150920      2.958380      2.958380    -0.000043   -0.000162   -0.000159
 Energy
        -12.729651080000
 PlusStress:  xx          yy          zz          yz          xz          xy
         0.15879     1.21125     1.21125     0.46885     0.15118     0.15118
END_CFG

BEGIN_CFG
 Size
    6
 Supercell
         2.640790      0.000000      0.000000
         0.000000     -1.524930      6.468150
         0.000000     -4.571320     -0.000013
 AtomData:  id type       cartes_x      cartes_y      cartes_z           fx          fy          fz
             1    0       0.000000     -4.569880      0.001090    -0.000016    0.203200    0.153050
             2    0       1.320390     -3.812020      6.467030     0.000016   -0.203154   -0.152884
             3    0       1.320390     -3.810260      2.153960     0.000020   -0.067868   -0.239977
             4    0       0.000000     -4.571640      4.314170    -0.000019    0.067825    0.240041
             5    1       0.000000     -1.522580      2.150310    -0.000029    0.251318   -0.910549
             6    1       1.320390     -2.288000      4.317830     0.000028   -0.251320    0.910320
 Energy
        -25.694707770000
 PlusStress:  xx          yy          zz          yz          xz          xy
        -2.58593    -0.35941    -1.88767     0.51245    -0.00001     0.00001
 Feature   ID	-1
END_CFG

BEGIN_CFG
 Size
    4
 Supercell
         0.000000      0.000001      3.094000
         2.893550      2.893550      0.000000
        -2.893550      2.893550      0.000000
 AtomData:  id type       cartes_x      cartes_y      cartes_z           fx          fy          fz
             1    0       0.000000      5.787030      0.000030    -0.000000    0.001462   -0.000516
             2    0       1.446440      4.340070      1.546920     0.005371    0.004369    0.001224
             3    0      -1.446440      4.340070      1.546920    -0.005371    0.004372    0.001227
             4    1       0.000000      2.894120      0.000140     0.000000   -0.010203   -0.001934
 Energy
        -16.631603220000
 PlusStress:  xx          yy          zz          yz          xz          xy
         0.39390     0.39390    -0.39019     0.00002     0.00002    -0.00004
END_CFG

BEGIN_CFG
 Size
    5
 Supercell
         1.885640      1.909590      0.002246
        -3.760440      5.639780      1.879610
         0.001309     -0.003297      3.759800
 AtomData:  id type       cartes_x      cartes_y      cartes_z           fx          fy          fz
             1    0       1.838300      1.953010      3.761580    -0.017602    0.009366    0.005425
             2    0       0.002690      1.890470      1.880740     0.001262   -0.000474    0.000167
             3    0       0.054040      3.734230      3.761960     0.017874   -0.011011   -0.005513
             4    1      -1.815840      3.703630      1.880350     0.039665   -0.035145   -0.002476
             5    1      -1.939210      5.717090      3.760750    -0.041199    0.037263    0.002397
 Energy
        -21.989927080000
 PlusStress:  xx          yy          zz          yz          xz          xy
        -0.44515    -0.33633     0.22981    -0.00748     0.04437    -0.23579
END_CFG

BEGIN_CFG
 Size
    4
 Supercell
         1.563660     -1.511340      1.511340
         0.000000      3.024680      3.024680
        -4.510050     -1.501260      1.501260
 AtomData:  id type       cartes_x      cartes_y      cartes_z           fx          fy          fz
             1    0       1.528830     -1.498090      1.498090    -0.089987    0.172457   -0.172431
             2    0       0.080050     -0.009740      3.034420     0.090017   -0.172393    0.172385
             3    1      -1.399390     -1.507760      1.507760     0.144482   -0.084634    0.084669
             4    1      -3.065440      0.010020      3.014670    -0.144512    0.084570   -0.084624
 Energy
        -18.054114130000
 PlusStress:  xx          yy          zz          yz          xz          xy
         0.02379     0.10132     0.10133     0.51404    -0.17141     0.17140
END_CFG

BEGIN_CFG
 Size
    4
 Supercell
         2.736760      0.000000      0.000000
        -1.368380      2.370100      0.000000
         0.000000      0.000000      8.938210
 AtomData:  id type       cartes_x      cartes_y      cartes_z           fx          fy          fz
             1    0       0.000000      0.000000      0.000000     0.000001    0.000001    0.000261
             2    1       1.368380      0.790030      2.234550    -0.000000    0.000006   -0.994839
             3    1       0.000000      1.580070      4.469100    -0.000000   -0.000012    0.000074
             4    1       1.368380      0.790030      6.703660    -0.000000    0.000005    0.994505
 Energy
        -19.417845550000
 PlusStress:  xx          yy          zz          yz          xz          xy
        -0.44371    -0.44380    -0.28315     0.00000    -0.00000     0.00001
 Feature   ID	-1
END_CFG

BEGIN_CFG
 Size
    1
 Supercell
         1.566970      1.566970     -1.566970
        -1.566970      1.566970      1.566970
         1.566970      1.566970      1.566970
 AtomData:  id type       cartes_x      cartes_y      cartes_z           fx          fy          fz
             1    1       0.000000      0.000000      0.000000     0.000000    0.000000   -0.000000
 Energy
         -5.170140430000
 PlusStress:  xx          yy          zz          yz          xz          xy
         0.01975     0.01975     0.01975     0.00003    -0.00003     0.00003
 Feature   ID	-1
END_CFG

BEGIN_CFG
 Size
    5
 Supercell
        -0.314603      2.811020     -2.722620
        -3.384250     -2.911310      0.176076
        -5.074480      1.421720      1.581850
 AtomData:  id type       cartes_x      cartes_y      cartes_z           fx          fy          fz
             1    0      -3.363410     -2.810830      0.160050    -0.048572   -0.192804    0.087856
             2    0      -5.347760      1.254570     -1.107320     0.048631    0.193309   -0.088067
             3    0      -6.892810     -0.067270      0.317300     0.000142   -0.000510    0.000419
             4    1      -1.811330      1.380280     -1.347900    -0.167530   -0.255438    0.066241
             5    1      -3.515600     -0.025220      0.224560     0.167330    0.255443   -0.066449
 Energy
        -21.962194600000
 PlusStress:  xx          yy          zz          yz          xz          xy
        -1.09233     0.61670    -0.58711     0.48506     0.92074    -0.65598
END_CFG

BEGIN_CFG
 Size
    6
 Supercell
         1.517540     -1.540490      1.540490
         0.000001      2.939780      2.939780
        -5.839750     -2.921120      2.921120
 AtomData:  id type       cartes_x      cartes_y      cartes_z           fx          fy          fz
             1    0       1.248790     -1.278620      1.278620    -0.111939    0.018565   -0.018494
             2    0      -0.006570     -0.191900      3.131690    -0.064547   -0.129884    0.129867
             3    0      -1.395770     -1.339250      1.339260     0.064775    0.129949   -0.129982
             4    0      -2.651120     -0.252540      3.192320     0.111883   -0.018550    0.018558
             5    1      -2.657160     -2.973240      2.973240     0.042218   -0.009175    0.009210
             6    1      -4.584930     -1.479040      4.418830    -0.042391    0.009095   -0.009159
 Energy
        -25.666295910000
 PlusStress:  xx          yy          zz          yz          xz          xy
        -0.02157    -0.42965    -0.42966    -0.11079    -0.10413     0.10416
END_CFG

BEGIN_CFG
 Size
    3
 Supercell
         1.529640     -1.529640      1.529640
         0.000000      2.950300      2.950300
        -2.950300      0.000000      2.950300
 AtomData:  id type       cartes_x      cartes_y      cartes_z           fx          fy          fz
             1    0       1.453480     -1.453480      1.453480    -0.040861    0.040840   -0.040829
             2    0       0.112480     -0.112480      3.062780     0.040721   -0.040700    0.040685
             3    1      -1.456990      1.456990      4.443610     0.000140   -0.000140    0.000144
 Energy
        -12.833609290000
 PlusStress:  xx          yy          zz          yz          xz          xy
         0.23708     0.23710     0.23708    -0.03081     0.03081    -0.03082
END_CFG

BEGIN_CFG
 Size
    4
 Supercell
         2.703580      0.000000      0.000000
         0.000000      4.623810      0.000000
         0.000000      0.000000      4.393790
 AtomData:  id type       cartes_x      cartes_y      cartes_z           fx          fy          fz
             1    0       0.000000      4.620770      0.000000    -0.000002    0.167028    0.000023
             2    0       0.000000      3.085580      2.196900     0.000000   -0.167611   -0.000026
             3    1       1.351790      2.368070      0.000000     0.000003    0.008683    0.000044
             4    1       1.351790      0.714470      2.196900    -0.000000   -0.008100   -0.000040
 Energy
        -18.284796100000
 PlusStress:  xx          yy          zz          yz          xz          xy
        -0.39273     0.90951     0.45501    -0.00001     0.00001    -0.00000
END_CFG

BEGIN_CFG
 Size
    4
 Supercell
         0.000000      0.000000      2.939730
         0.000000      2.939730      0.000000
        -5.879450      0.000000      0.000000
 AtomData:  id type       cartes_x      cartes_y      cartes_z           fx          fy          fz
             1    0       0.000000      0.000000      0.000000    -0.914585   -0.000031   -0.000035
             2    0      -1.469860      1.469860      1.469860     0.000809    0.000026    0.000024
             3    0      -2.939730      0.000000      0.000000     0.914940   -0.000033   -0.000035
             4    1      -4.409590      1.469860      1.469860    -0.001164    0.000037    0.000046
 Energy
        -16.572401520000
 PlusStress:  xx          yy          zz          yz          xz          xy
        -0.60132    -0.79913    -0.79913     0.00001    -0.00001     0.00000
 Feature   ID	-1
END_CFG

BEGIN_CFG
 Size
    4
 Supercell
         0.000000      0.000000      3.788920
        -1.894460      3.788920      1.894460
        -3.788920      0.000000      0.000000
 AtomData:  id type       cartes_x      cartes_y      cartes_z           fx          fy          fz
             1    0       0.000000      0.000000      0.000000    -0.000191    0.000001   -0.000196
             2    0      -3.788920      1.894460      1.894460     0.000192    0.000002    0.000190
             3    1      -1.894460      0.000000      1.894460     0.001682    0.000002    0.001686
             4    1      -1.894460      1.894460      3.788920    -0.001682   -0.000005   -0.001679
 Energy
        -18.294678370000
 PlusStress:  xx          yy          zz          yz          xz          xy
        -0.10000    -0.84612    -0.09999     0.00747     0.00078    -0.00749
 Feature   ID	-1
END_CFG

BEGIN_CFG
 Size
    6
 Supercell
         2.743170      0.006956      0.000000
         1.353580      7.043120      0.000000
         0.000000      0.000000      4.449000
 AtomData:  id type       cartes_x      cartes_y      cartes_z           fx          fy          fz
             1    0       1.353660      7.011480      0.000000     0.000092   -0.010728    0.000000
             2    0       2.731030      4.750690      0.000000    -0.001474    0.011893    0.000000
             3    1       1.365540      2.362840      0.000000    -0.000667   -0.027157   -0.000001
             4    1       1.369690      0.748310      2.224500    -0.001805    0.036551   -0.000000
             5    1       2.735140      3.149120      2.224500     0.003022   -0.008853    0.000001
             6    1       1.357610      5.470850      2.224500     0.000833   -0.001706   -0.000000
 Energy
        -28.602282060000
 PlusStress:  xx          yy          zz          yz          xz          xy
         0.23627    -0.23319    -0.18626    -0.00000    -0.00000     0.03579
END_CFG

BEGIN_CFG
 Size
    5
 Supercell
         1.833770     -1.422430      1.382470
         0.093512      2.907360      2.867370
        -4.614040     -1.498260      4.578870
 AtomData:  id type       cartes_x      cartes_y      cartes_z           fx          fy          fz
             1    0      -3.145100     -2.634840      5.683390    -0.031485   -0.019649    0.021202
             2    0       0.579680     -0.276020      3.170150     0.033575    0.021164   -0.022433
             3    1      -1.095430      1.379160      4.455670    -0.008566   -0.006295    0.005122
             4    1      -1.282710     -1.455430      4.426770    -0.001414   -0.000955    0.000885
             5    1      -3.210250      0.039770      5.882770     0.007890    0.005736   -0.004775
 Energy
        -23.392956720000
 PlusStress:  xx          yy          zz          yz          xz          xy
        -0.17864    -0.29212    -0.28310    -0.14153     0.13367    -0.15113
END_CFG

BEGIN_CFG
 Size
    6
 Supercell
        -3.053160      0.000000      3.053160
        -3.063760      3.063760     -3.063760
         0.000000     -3.053150     -3.053160
 AtomData:  id type       cartes_x      cartes_y      cartes_z           fx          fy          fz
             1    0      -2.985100      2.985090     -2.985100    -0.049561    0.049579   -0.049572
             2    0      -3.135360      0.082200     -0.082200     0.050195   -0.050157    0.050217
             3    1      -1.528340     -1.524820     -1.528340     0.000828   -0.000823    0.000825
             4    1      -1.441280      1.441280     -1.441280    -0.002286    0.002246   -0.002279
             5    1      -3.060230      0.007070     -3.060230    -0.000821    0.000833   -0.000821
             6    1      -4.679170      1.626010     -1.626010     0.001645   -0.001678    0.001631
 Energy
        -28.528500060000
 PlusStress:  xx          yy          zz          yz          xz          xy
         0.26657     0.26659     0.26654    -0.15346     0.15343    -0.15340
END_CFG

BEGIN_CFG
 Size
    4
 Supercell
         2.679170      0.000000      0.000000
        -1.339590      2.320230      0.000000
         0.000000      0.000000      8.750140
 AtomData:  id type       cartes_x      cartes_y      cartes_z           fx          fy          fz
             1    0       0.000000      0.000000      0.000000     0.000008   -0.000002    0.000289
             2    0       0.000000      1.546820      4.375070     0.000007    0.000002   -0.000387
             3    1       1.339590      0.773410      2.187530    -0.000007   -0.000000   -0.001629
             4    1       1.339590      0.773410      6.562600    -0.000008    0.000001    0.001727
 Energy
        -18.215917380000
 PlusStress:  xx          yy          zz          yz          xz          xy
        -1.35513    -1.35505     0.62353     0.00000    -0.00000     0.00001
 Feature   ID	-1
END_CFG

BEGIN_CFG
 Size
    4
 Supercell
         2.619000      0.000000      0.000000
        -1.309500      2.268120      0.000000
         0.000000      0.000000      8.553610
 AtomData:  id type       cartes_x      cartes_y      cartes_z           fx          fy          fz
             1    0       0.000000      0.000000      0.000000    -0.000001   -0.000003    0.671954
             2    0       1.309500      0.756040      2.138400    -0.000004   -0.000001    0.001511
             3    0       0.000000      1.512080      4.276800     0.000003    0.000005   -0.671600
             4    1       1.309500      0.756040      6.415210     0.000002   -0.000001   -0.001865
 Energy
        -16.449222270000
 PlusStress:  xx          yy          zz          yz          xz          xy
        -1.61316    -1.61310    -0.44794    -0.00001     0.00000     0.00007
 Feature   ID	-1
END_CFG

BEGIN_CFG
 Size
    6
 Supercell
         0.026935      2.990410     -2.990410
         0.000000     -2.926870     -2.926870
        -4.553180      1.517780     -1.517780
 AtomData:  id type       cartes_x      cartes_y      cartes_z           fx          fy          fz
             1    0      -0.030070      2.990690     -2.990690     0.046927   -0.000181    0.000185
             2    0      -1.495280      1.534500     -4.461370    -0.000425   -0.000307    0.000314
             3    0      -2.960500      0.078310     -5.932050    -0.047398   -0.000357    0.000349
             4    0      -1.508750      1.502730     -1.502730    -0.000404   -0.000297    0.000320
             5    1      -0.027300      0.031860     -2.958730    -0.113988    0.003250   -0.003261
             6    1      -2.990200      0.046730     -2.973600     0.115288   -0.002108    0.002092
 Energy
        -25.633116670000
 PlusStress:  xx          yy          zz          yz          xz          xy
        -0.03400     1.00510     1.00510    -0.04563     0.01074    -0.01074
END_CFG

BEGIN_CFG
 Size
    4
 Supercell
         2.627150     -0.001805      0.003411
         1.310960     -2.270660      4.281580
         0.000070     -4.541910      0.000228
 AtomData:  id type       cartes_x      cartes_y      cartes_z           fx          fy          fz
             1    0       2.627220     -4.543500      0.007100     0.001001    0.019912    0.131569
             2    0       2.624570     -4.542230      4.279940     0.004159    0.017432   -0.134344
             3    0       1.312310     -3.786790      2.141790    -0.000938    0.031054    0.002488
             4    1       2.625850     -1.514110      2.143350    -0.004222   -0.068398    0.000286
 Energy
        -16.626324570000
 PlusStress:  xx          yy          zz          yz          xz          xy
        -1.29931    -0.13576    -0.77768     0.05347     0.01288    -0.01225
 Feature   ID	-1
END_CFG

BEGIN_CFG
 Size
    5
 Supercell
        -0.002920      3.015500     -3.008040
        -3.026370     -3.002450      0.007719
        -4.488840      1.492680      1.496750
 AtomData:  id type       cartes_x      cartes_y      cartes_z           fx          fy          fz
             1    0      -3.050100      0.036230     -2.978650     0.009046   -0.017376   -0.012768
             2    0      -4.490650      1.483360     -1.525420    -0.008750    0.017861    0.013286
             3    0      -6.013340     -0.001610      0.000360    -0.000380   -0.000527   -0.000523
             4    1      -1.455110      1.457700     -1.554180     0.054467   -0.050842   -0.051855
             5    1      -3.056350      0.048840      0.050430    -0.054383    0.050884    0.051860
 Energy
        -21.903437160000
 PlusStress:  xx          yy          zz          yz          xz          xy
         0.00187     0.00284    -0.00156     0.00174    -0.02136    -0.03557
END_CFG

BEGIN_CFG
 Size
    4
 Supercell
         1.602330     -1.408320      1.408320
         1.602330      1.408320     -1.408320
         0.000000      5.666650      5.666650
 AtomData:  id type       cartes_x      cartes_y      cartes_z           fx          fy          fz
             1    0       0.000000      0.052600      0.052600     0.000007    0.018284    0.018281
             2    0       1.602330      1.416660      1.416660     0.000001   -0.000037   -0.000041
             3    0       0.000000      2.780740      2.780740    -0.000006   -0.018505   -0.018507
             4    1       1.602330      4.249980      4.249980    -0.000002    0.000259    0.000267
 Energy
        -16.372898920000
 PlusStress:  xx          yy          zz          yz          xz          xy
        -1.57400    -0.34723    -0.34722     1.14889     0.00001    -0.00001
END_CFG

BEGIN_CFG
 Size
    3