BEGIN_CFG
 Size
    128
 Supercell
        14.080000      0.000000      0.000000
         0.000000     14.080000      0.000000
         0.000000      0.000000     14.080000
 AtomData:  id type       cartes_x      cartes_y      cartes_z  
             1    0       0.272080      0.216830      0.089120  
             2    0       1.797410      1.738960      2.172980  
             3    0       0.130750     13.908320      3.601130  
             4    0       1.510610      1.380470      5.381370  
             5    0      13.716220     14.043380      7.405610  
             6    0       1.339190      2.024230      8.594190  
             7    0       0.316540      0.347780     11.111090  
             8    0       1.958390      2.150770     12.154350  
             9    0      14.060730      3.188870      0.116280  
            10    0       2.002180      4.979170      2.023510  
            11    0      14.071370      3.351490      3.667370  
            12    0       1.667940      5.537210      5.419000  
            13    0      13.639380      3.665100      6.631700  
            14    0       1.239670      5.483620      8.724000  
            15    0      14.043710      3.898560     11.142460  
            16    0       1.892260      5.219150     12.714630  
            17    0       0.277920      7.069030      0.334550  
            18    0       1.611110      8.792220      2.193220  
            19    0       0.055950      6.793370      3.261420  
            20    0       1.872410      8.753890      5.345450  
            21    0       0.054210      7.174760      6.714590  
            22    0       1.992630      8.654430      8.877410  
            23    0       0.523130      7.177230     11.405870  
            24    0       2.421360      8.911640     12.374050  
            25    0      14.025520     10.390670     13.859250  
            26    0       1.613040     12.127570      1.435290  
            27    0       0.137030     10.915140      4.007620  
            28    0       1.589730     12.765110      5.957520  
            29    0       0.016890     10.238400      6.904010  
            30    0       1.675400     12.446170      8.973560  
            31    0      13.757590     10.132100     10.663650  
            32    0       1.572480     12.214200     12.169320  
            33    0       3.568590     13.866020     13.810190  
            34    0       5.438130      1.481320      1.991630  
            35    0       3.427130      0.235010      3.620750  
            36    0       5.027100      1.520630      5.580400  
            37    0       3.644150      0.302930      7.341730  
            38    0       5.117880      2.017440      8.431820  
            39    0       3.263110      0.353280     10.326760  
            40    0       5.089360      1.929230     11.970870  
            41    0       3.736250      2.981240      0.110410  
            42    0       5.126070      4.948270      1.851040  
            43    0       3.308380      3.412100      3.867800  
            44    0       5.282700      5.357940      5.239690  
            45    0       3.247810      3.956030      6.948890  
            46    0       5.608520      5.358620      8.863210  
            47    0       3.196010      3.570130      9.961040  
            48    0       5.128240      5.253890     12.504210  
            49    0       3.574440      7.576910      0.397170  
            50    0       5.223050      9.080430      2.107860  
            51    0       3.284330      6.928870      3.545230  
            52    0       5.861820      8.492300      5.223890  
            53    0       4.025480      6.895100      7.096030  
            54    0       5.975990      8.500640      8.820650  
            55    0       3.338570      6.593980     10.559990  
            56    0       5.395850      9.374260     12.439650  
            57    0       4.184650     10.985090      0.363800  
            58    0       5.556960     12.708140      1.928450  
            59    0       3.214790     10.831800      3.939380  
            60    0       5.334950     12.665520      5.042880  
            61    0       3.861400     10.467240      6.985870  
            62    0       5.719110     12.567330      7.915560  
            63    0       3.444640     10.793510     10.276560  
            64    0       5.041100     12.312050     11.706830  
            65    0       6.722260      0.062540     13.484400  
            66    0       8.599460      1.647140      1.804430  
            67    0       7.338670      0.248040      3.406100  
            68    0       9.273290      1.747100      5.475700  
            69    0       7.589960      0.213060      6.600500  
            70    0       8.780190      2.108350      8.641540  
            71    0       6.827900     13.854540      9.843430  
            72    0       8.602340      1.857710     12.194500  
            73    0       7.000380      3.509700     13.921310  
            74    0       8.484620      4.999780      1.599790  
            75    0       6.928370      3.493300      3.473430  
            76    0       8.869830      5.111010      5.083550  
            77    0       7.040940      3.590220      6.895260  
            78    0       8.924870      5.079900      9.223730  
            79    0       6.973250      3.646370     10.999640  
            80    0       8.801990      5.163110     12.502010  
            81    0       7.076560      7.269770     14.068600  
            82    0       8.693950      8.996700      1.730750  
            83    0       7.114110      7.136360      3.488140  
            84    0       9.096140      8.482570      5.319550  
            85    0       7.413870      6.750390      6.794360  
            86    0       8.771330      8.456240      8.699920  
            87    0       6.909890      7.023170     10.988210  
            88    0       8.527590      8.667390     12.018700  
            89    0       6.918980     10.962630     13.936990  
            90    0       8.626240     12.228590      1.528770  
            91    0       7.144110     10.620200      3.915030  
            92    0       9.414510     12.340700      5.062230  
            93    0       7.627110     10.237750      6.939970  
            94    0       9.155790     12.812190      8.551520  
            95    0       6.852150     10.824800     10.030950  
            96    0       8.757320     12.213430     12.051420  
            97    0      10.044290     14.026460     14.010820  
            98    0      12.202860      1.583850      2.270740  
            99    0      10.322260     13.812720      3.409060  
           100    0      12.502760      1.659620      5.191880  
           101    0      10.854870      0.329810      7.163220  
           102    0      12.168400      1.948470      8.990490  
           103    0      10.480120      0.381520     10.606380  
           104    0      12.085840      1.491680     12.853110  
           105    0      10.451310      3.099800      0.240470  
           106    0      12.642960      5.118160      2.059620  
           107    0      10.363220      3.453540      3.307430  
           108    0      11.874370      4.922460      4.773460  
           109    0      10.867910      3.837850      7.376670  
           110    0      12.446830      5.447800      8.919130  
           111    0      10.809110      3.617880     11.084290  
           112    0      12.744190      5.267730     13.025390  
           113    0      10.438630      6.800600      0.092240  
           114    0      12.295360      8.741730      1.809430  
           115    0       9.923820      6.930800      3.163510  
           116    0      12.094760      8.531200      4.639930  
           117    0      10.523020      7.035970      6.959890  
           118    0      12.102240      8.804010      8.408640  
           119    0      10.435130      6.579230     10.730810  
           120    0      11.665900      8.494120     12.174070  
           121    0      10.428410     10.581260     13.839140  
           122    0      12.346250     12.093090      1.430380  
           123    0      10.433780     10.495040      3.281410  
           124    0      12.192080     12.416250      5.324030  
           125    0      10.925120     10.297250      6.550580  
           126    0      12.100520     11.963570      8.511710  
           127    0      10.261800     10.525530     10.281100  
           128    0      12.052520     12.309160     12.170670  
 Feature   MV_grade	 1.092504
 Feature   from	 database:Li_NVT300.cfg
END_CFG

BEGIN_CFG
 Size
    128
 Supercell
        14.080000      0.000000      0.000000
         0.000000     14.080000      0.000000
         0.000000      0.000000     14.080000
 AtomData:  id type       cartes_x      cartes_y      cartes_z  
             1    0      13.885010      0.224840      0.257600  
             2    0       1.901200      1.992050      2.073200  
             3    0      14.043660      0.140740      3.568890  
             4    0       1.603510      2.055710      5.387180  
             5    0      14.028420      0.165200      6.612560  
             6    0       1.551570      1.875340      8.554380  
             7    0       0.637500     13.958430     10.497390  
             8    0       1.130290      1.729490     12.767770  
             9    0      13.437490      3.316560      0.219770  
            10    0       1.716480      4.983150      1.794890  
            11    0       0.053760      3.418330      3.738620  
            12    0       2.046900      4.699090      5.354270  
            13    0      13.876690      3.465330      7.102530  
            14    0       2.057090      4.990960      8.027190  
            15    0       0.125560      3.515560     10.426960  
            16    0       1.316740      4.878980     12.806360  
            17    0      13.971370      6.916520     13.965630  
            18    0       0.830360      8.288880      1.640920  
            19    0      13.889920      6.595050      3.687910  
            20    0       1.237930      8.585080      5.224070  
            21    0      14.013520      6.392390      7.353670  
            22    0       1.852660      8.500130      8.500310  
            23    0       0.218370      6.529300     10.575980  
            24    0       1.808800      8.522650     12.221720  
            25    0       0.175130     10.581300      0.005980  
            26    0       1.762980     12.822600      1.789040  
            27    0       0.640260     10.762280      3.519950  
            28    0       1.867300     12.737070      5.219910  
            29    0       0.432030     10.924630      6.914440  
            30    0       2.159380     12.778410      8.367430  
            31    0       0.399990     10.885150     10.309880  
            32    0       1.880920     12.289300     12.639770  
            33    0       3.746610      0.121030      0.015200  
            34    0       5.278260      1.610900      1.856760  
            35    0       3.554040      0.306660      3.704690  
            36    0       5.597230      1.706720      5.081810  
            37    0       4.152400      0.164000      6.968430  
            38    0       5.617270      2.046620      9.640580  
            39    0       3.666710      0.045080     10.976340  
            40    0       5.313210      2.061810     12.624920  
            41    0       3.710420      3.503420      0.644000  
            42    0       5.389870      6.073450      1.278320  
            43    0       3.877570      3.391480      3.557860  
            44    0       5.770560      5.224700      5.521270  
            45    0       4.038800      3.612590      7.551450  
            46    0       5.627710      5.399040      8.957730  
            47    0       2.996340      3.244820     10.868540  
            48    0       4.709490      5.466480     11.970570  
            49    0       3.030040      6.805930     13.853630  
            50    0       5.901610      8.995190      2.053970  
            51    0       3.356100      7.307010      3.021110  
            52    0       5.246290      8.709420      5.166920  
            53    0       3.569080      6.812000      6.574390  
            54    0       4.898650      8.407840      8.452360  
            55    0       3.180260      6.467640     10.239890  
            56    0       4.648290      8.508000     11.624040  
            57    0       3.289030      9.849810      0.829220  
            58    0       5.200650     12.493800      1.817920  
            59    0       3.555930     10.412210      3.765250  
            60    0       5.391420     12.730870      4.964540  
            61    0       3.322510     11.027520      6.635640  
            62    0       4.976170     12.933620      8.983340  
            63    0       3.273380     10.830310     10.034700  
            64    0       4.920940     11.860530     11.975490  
            65    0       6.983580     13.903200     14.069700  
            66    0       8.634450      1.609440      1.648090  
            67    0       7.207360     13.955670      3.632680  
            68    0       8.560330      2.128510      5.190550  
            69    0       7.010160      0.293080      7.614470  
            70    0       8.868290      1.204040      9.359510  
            71    0       6.744460     13.954410     10.936980  
            72    0       8.934260      1.171450     12.299910  
            73    0       7.184200      3.492520      0.019770  
            74    0       8.885110      5.883020      1.068150  
            75    0       7.224670      3.995670      2.810920  
            76    0       8.993950      5.157140      5.389560  
            77    0       7.389360      3.166440      7.514020  
            78    0       8.809800      5.577700      8.672530  
            79    0       7.429990      4.240580     11.077650  
            80    0       8.997030      5.537620     12.573490  
            81    0       6.538200      7.360850     13.355360  
            82    0       8.656100      9.131260      1.260610  
            83    0       7.260930      6.874390      3.817250  
            84    0       8.648740      9.120180      5.719460  
            85    0       7.182070      7.171820      6.775840  
            86    0       8.846490      8.994430      8.703640  
            87    0       7.240260      7.304100     10.435940  
            88    0       8.775020      8.960070     12.362940  
            89    0       6.530940     10.193520     13.314990  
            90    0       8.252030     11.698410      1.372660  
            91    0       7.166080     10.668860      3.944820  
            92    0       8.587180     12.383620      5.912800  
            93    0       6.213930     10.692410      7.097730  
            94    0       8.792190     12.086340      8.839370  
            95    0       6.757210     10.262460     10.236900  
            96    0       8.530340     11.954680     11.870120  
            97    0      10.467800     13.920480      0.008900  
            98    0      12.155070      1.826590      1.910830  
            99    0      10.421520     13.839890      3.085860  
           100    0      11.902170      1.919000      4.667190  
           101    0      10.802940      0.375130      6.831440  
           102    0      12.425530      1.400510      9.192880  
           103    0      10.639300     13.412410     10.241550  
           104    0      12.078210      1.341220     12.070270  
           105    0      10.514320      3.389750     13.893150  
           106    0      12.299310      5.412070      2.090910  
           107    0      10.411480      3.548440      3.056850  
           108    0      12.037770      5.018480      5.271760  
           109    0      10.635490      3.215830      7.615590  
           110    0      12.215170      5.222800      8.962050  
           111    0      10.205190      3.849250     10.775640  
           112    0      12.433270      5.366310     12.768310  
           113    0      10.726720      7.584220      0.128060  
           114    0      12.318100      9.084010      2.018000  
           115    0      10.295570      7.302910      3.748180  
           116    0      12.284290      9.131060      5.558810  
           117    0      10.452560      7.228860      6.845220  
           118    0      13.042000      8.773860      9.195040  
           119    0      10.503690      7.135660     10.634920  
           120    0      12.921460      8.731900     12.005390  
           121    0      11.042300     10.490010     13.942210  
           122    0      12.555770     12.019340      1.971890  
           123    0      10.380570     10.364790      3.973070  
           124    0      12.399820     11.973810      5.031640  
           125    0      10.866590     10.847820      7.496750  
           126    0      12.899050     12.473530      8.226860  
           127    0      10.661200     10.452140     10.608450  
           128    0      12.931360     12.609030     11.976870  
 Feature   MV_grade	 1.367068
 Feature   from	 database:Li_NVT300.cfg
END_CFG

