BEGIN_CFG
 Size
    12
 Supercell
         3.673210      0.020616      0.241239
         1.100660     -1.917720     10.742000
         0.025027     -3.680820     -0.045759
 AtomData:  id type       cartes_x      cartes_y      cartes_z           fx          fy          fz
             1    0       1.776910     -3.378140      1.855480    -0.000073   -0.000087    0.000563
             2    0       3.601000     -1.527430      1.998990    -0.000035    0.000069    0.000437
             3    1       0.046360     -3.362130      0.070230     0.037616   -0.035738   -0.123859
             4    1       3.507450     -3.394160      3.640720    -0.037463    0.035753    0.123389
             5    1       3.232740     -3.418280      7.297700     0.047533    0.047721    0.004034
             6    1       1.868680     -1.513220      0.213590     0.045971   -0.027116   -0.123227
             7    1       1.660110     -1.562250      3.543120    -0.045936    0.027148    0.122883
             8    1       1.396700     -1.574900      7.200990    -0.047771   -0.047722   -0.003405
             9    1       1.540880     -3.413170      5.307570     0.006359   -0.008299    0.018744
            10    1       3.113590     -5.260830      9.145390    -0.006317    0.008277   -0.018870
            11    2       1.261390     -3.423220      8.990040     0.081599   -0.035794   -0.569434
            12    2       3.368060     -1.569960      5.508680    -0.081484    0.035787    0.568745
 Energy
        -72.626450420000
 PlusStress:  xx          yy          zz          yz          xz          xy
        -0.62062    -0.54717    -4.12044    -0.31319     0.60183     0.04897
 Feature   EFS_by	VASP
END_CFG
BEGIN_CFG
 Size
    6
 Supercell
        -1.591690      1.591520      1.641560
         3.138920      3.139150      0.000071
        -3.069180      3.069060     -6.143750
 AtomData:  id type       cartes_x      cartes_y      cartes_z           fx          fy          fz
             1    1      -4.549140      4.588240     -4.540560    -0.005027    0.004870    0.049278
             2    0       0.104660      3.073820      0.036580    -0.614812    0.613580    0.241850
             3    0      -1.340050      1.379180     -1.500510     0.246653   -0.244512   -0.143448
             4    0      -0.156940      3.335500     -2.876120     0.088327   -0.089186   -0.339791
             5    0      -3.082450      3.121610     -2.993780    -0.200719    0.201422    0.251081
             6    0      -1.548060      4.726440     -4.709260     0.485576   -0.486173   -0.058971
 Energy
        -44.493305890000
 PlusStress:  xx          yy          zz          yz          xz          xy
         1.63070     1.63147     0.98021     0.05288    -0.05386    -1.33600
 Feature   EFS_by	VASP
END_CFG

BEGIN_CFG
 Size
    12
 Supercell
         0.000000      2.310780      2.310780
         0.000853      5.606590     -5.606590
        -6.886840      0.000544     -0.000544
 AtomData:  id type       cartes_x      cartes_y      cartes_z           fx          fy          fz
             1    1      -0.972620      5.232250     -5.232250     0.132554    0.255550   -0.255572
             2    1      -4.134750      2.464560     -0.153790    -0.131973   -0.255815    0.255825
             3    1      -0.691160      3.584320     -1.273540    -0.131945    0.255895   -0.255904
             4    1      -4.416210      4.112500     -4.112500     0.132089   -0.255618    0.255613
             5    0      -2.670350      2.325250     -2.325250     0.146042    0.268734   -0.268743
             6    0      -0.200190      3.609980     -3.609980     0.311994   -0.178678    0.178679
             7    0      -5.880310      6.284190     -3.973410    -0.145830    0.269175   -0.269198
             8    0      -3.644140      2.438830      2.182720     0.312039    0.178826   -0.178805
             9    0      -1.464080      1.962170      0.348600    -0.312446   -0.178205    0.178215
            10    0      -6.113890      1.413170     -1.413170     0.145936   -0.268854    0.268843
            11    0      -4.907180      4.086840     -1.776060    -0.312309    0.178229   -0.178221
            12    0      -2.437020      5.371560     -3.060790    -0.146150   -0.269240    0.269266
 Energy
        -86.715458570000
 PlusStress:  xx          yy          zz          yz          xz          xy
         6.13646     1.34068     1.34065    -2.39320     0.00009    -0.00010
 Feature   EFS_by	VASP
END_CFG
