BEGIN_CFG
 Size
    128
 Supercell
        14.084000      0.000000      0.000000
         0.000000     14.084000      0.000000
         0.000000      0.000000     14.084000
 AtomData:  id type       cartes_x      cartes_y      cartes_z           fx          fy          fz
             1    0       0.019372     -0.014828     -0.018345    -0.022757    0.030967    0.017251
             2    0       1.744383      1.753225      1.775935     0.006924    0.001586   -0.019725
             3    0       3.539306      0.018059     -0.009787    -0.009225   -0.010343    0.007099
             4    0       5.279300      1.766527      1.744540    -0.004072   -0.001447    0.030381
             5    0       7.048614     -0.014630     -0.012164     0.014632    0.015435    0.013143
             6    0       8.809485      1.757631      1.757767     0.003891   -0.004890   -0.003227
             7    0      10.582243     -0.017097     -0.012630    -0.006363    0.009027    0.011291
             8    0      12.311609      1.769308      1.781853     0.019692   -0.030750   -0.022200
             9    0      -0.004953      3.522313      0.006811     0.002212   -0.007899   -0.016868
            10    0       1.748896      5.286866      1.749445     0.005770   -0.002426    0.021992
            11    0       3.523864      3.539005     -0.002329    -0.013974   -0.010122    0.003955
            12    0       5.293101      5.291367      1.761835    -0.019687   -0.007741    0.014947
            13    0       7.022437      3.517922      0.002414     0.025767    0.006395   -0.010626
            14    0       8.792228      5.279220      1.771915     0.021497   -0.008109   -0.008700
            15    0      10.573920      3.513150      0.017611    -0.014809    0.008687   -0.003127
            16    0      12.323875      5.265285      1.758433    -0.010820    0.032231   -0.001565
            17    0       0.007559      7.046955     -0.003046    -0.019789    0.004201    0.009769
            18    0       1.775175      8.810528      1.778969    -0.012114    0.003865   -0.035252
            19    0       3.517601      7.034771      0.001515    -0.003661    0.009039   -0.017118
            20    0       5.263082      8.790410      1.742935     0.028861    0.022891    0.011029
            21    0       7.056665      7.037500     -0.004657    -0.001480    0.013547    0.005534
            22    0       8.803824      8.819137      1.757706     0.003349   -0.020276    0.002295
            23    0      10.547974      7.043369     -0.011181     0.026583    0.000069    0.014796
            24    0      12.334568      8.794518      1.768808    -0.009773   -0.000524    0.000014
            25    0      -0.003664     10.552987      0.001723     0.000649    0.001194    0.006411
            26    0       1.765681     12.329053      1.748688    -0.000165   -0.005443    0.007297
            27    0       3.521222     10.558260     -0.018256    -0.012233    0.018365    0.022361
            28    0       5.265248     12.343206      1.780610    -0.004785   -0.033844   -0.013360
            29    0       7.034477     10.580633     -0.004937    -0.001890   -0.009810    0.013297
            30    0       8.801050     12.306281      1.765416     0.011955    0.021569    0.004181
            31    0      10.555047     10.553903      0.020150     0.016941    0.007254   -0.008283
            32    0      12.332605     12.324806      1.762440     0.001296    0.007675    0.005854
            33    0       0.014282      0.002063      3.536782    -0.020981   -0.015885   -0.004765
            34    0       1.779523      1.756863      5.271307    -0.017213    0.002995    0.026406
            35    0       3.504044      0.005717      3.529325     0.005184   -0.001493   -0.001731
            36    0       5.269781      1.773542      5.291081     0.014652   -0.002785   -0.018349
            37    0       7.022953     -0.005212      3.502978     0.022436    0.006563    0.030333
            38    0       8.790815      1.769472      5.299482     0.003343   -0.006551   -0.015378
            39    0      10.558629      0.014724      3.512964    -0.011420   -0.016462    0.006187
            40    0      12.321490      1.749991      5.263882    -0.013606    0.013346    0.020849
            41    0      -0.008126      3.523777      3.515443     0.008906   -0.006324    0.012775
            42    0       1.780837      5.262920      5.282948    -0.011962    0.015800    0.005168
            43    0       3.502339      3.518561      3.530619     0.019998    0.007018   -0.021792
            44    0       5.267498      5.274525      5.285803     0.023695    0.004018   -0.016560
            45    0       7.053041      3.512307      3.508034    -0.007811   -0.006206    0.020827
            46    0       8.782607      5.262486      5.297326     0.022406    0.015873   -0.011645
            47    0      10.571808      3.516919      3.520850    -0.020159    0.011832    0.023953
            48    0      12.342302      5.285247      5.270975    -0.010609   -0.004874    0.008031
            49    0       0.017209      7.050857      3.523024    -0.020896   -0.009900    0.000386
            50    0       1.745261      8.803765      5.264887     0.015183    0.003394    0.021540
            51    0       3.514926      7.061660      3.512970    -0.005711   -0.029710    0.012540
            52    0       5.270125      8.794236      5.264899     0.008571    0.016427    0.007176
            53    0       7.036915      7.029337      3.520899     0.007642    0.013044    0.007042
            54    0       8.789287      8.805196      5.277828     0.032147    0.002623   -0.003165
            55    0      10.549336      7.041411      3.505794    -0.004970   -0.006357    0.012535
            56    0      12.302944      8.809863      5.277156     0.014528   -0.000744   -0.004603
            57    0       0.017789     10.567942      3.502674    -0.017675    0.004084    0.010261
            58    0       1.764927     12.319372      5.278677     0.008694    0.006294    0.016635
            59    0       3.509578     10.555047      3.520879     0.014001    0.018728    0.005069
            60    0       5.263382     12.343003      5.279968     0.016347   -0.020335    0.000159
            61    0       7.056659     10.549830      3.504825    -0.024277    0.012856    0.016164
            62    0       8.814774     12.328822      5.291915    -0.005368    0.001289   -0.021667
            63    0      10.573635     10.578474      3.523172    -0.007278   -0.011253   -0.001873
            64    0      12.315746     12.310010      5.274672     0.010306    0.011534    0.001705
            65    0      -0.012008      0.015881      7.040586     0.013558   -0.021930   -0.005751
            66    0       1.777810      1.741124      8.799821    -0.009927    0.022461   -0.014770
            67    0       3.540279      0.014648      7.057530    -0.024042   -0.017423   -0.020606
            68    0       5.286703      1.741746      8.793934     0.007618    0.025940    0.013995
            69    0       7.035742      0.013847      7.041137     0.004081   -0.012851   -0.004416
            70    0       8.783726      1.762653      8.796181     0.023891    0.003605    0.011583
            71    0      10.547686     -0.007852      7.040329     0.022104    0.023788    0.000517
            72    0      12.333037      1.774466      8.797810    -0.030651   -0.013492   -0.001714
            73    0       0.009534      3.502590      7.034723    -0.003771    0.014188   -0.004149
            74    0       1.742788      5.296841      8.818750     0.020441   -0.026675   -0.025456
            75    0       3.540587      3.524627      7.034294    -0.024009   -0.004367    0.041127
            76    0       5.300907      5.302199      8.786036    -0.010414   -0.028049    0.011594
            77    0       7.030866      3.540367      7.040259     0.001367   -0.017154    0.006846
            78    0       8.787857      5.289574      8.802717     0.009024   -0.014111    0.011581
            79    0      10.546164      3.531338      7.052920     0.014465   -0.016073   -0.013954
            80    0      12.313929      5.263804      8.816798     0.009349    0.013657   -0.022445
            81    0       0.019639      7.053265      7.048252    -0.018349   -0.014638   -0.003159
            82    0       1.771830      8.821838      8.795522    -0.010569   -0.016119    0.015863
            83    0       3.539516      7.038154      7.046414    -0.022941    0.002130   -0.017394
            84    0       5.267081      8.801436      8.805200     0.030995    0.003047    0.004748
            85    0       7.060562      7.057830      7.039305    -0.015445   -0.001642   -0.007992
            86    0       8.802516      8.782612      8.802817     0.009960    0.013662    0.009904
            87    0      10.575943      7.023965      7.044071    -0.000033    0.009884   -0.003107
            88    0      12.343008      8.807871      8.825138    -0.006033   -0.013127   -0.007155
            89    0       0.020079     10.560250      7.037067    -0.021459    0.012441   -0.007125
            90    0       1.766082     12.321619      8.807005    -0.008522    0.005002   -0.006380
            91    0       3.534488     10.547899      7.054903    -0.006696    0.014545   -0.018105
            92    0       5.268055     12.320430      8.818121     0.001324   -0.004471   -0.011817
            93    0       7.052269     10.578577      7.031475    -0.018049   -0.002391    0.007822
            94    0       8.816505     12.321876      8.786049    -0.022025   -0.004820    0.021750
            95    0      10.575631     10.557634      7.063085    -0.015150   -0.017817   -0.011810
            96    0      12.307153     12.310793      8.793149     0.021149    0.013130    0.009554
            97    0      -0.008108      0.018893     10.559133    -0.004018   -0.016892   -0.002782
            98    0       1.775479      1.771426     12.305281    -0.024313    0.001436    0.021359
            99    0       3.509504      0.010631     10.567464     0.005999   -0.025344   -0.004501
           100    0       5.288869      1.751805     12.308910     0.006895    0.003032   -0.009626
           101    0       7.035953     -0.019734     10.558315     0.024094    0.014197   -0.005697
           102    0       8.811780      1.779218     12.322663    -0.002525   -0.012927   -0.006537
           103    0      10.561593     -0.018468     10.575751    -0.005483    0.017114   -0.018494
           104    0      12.315004      1.778915     12.307833     0.002627   -0.009974    0.013980
           105    0       0.007485      3.532270     10.556376     0.002725   -0.018080   -0.004893
           106    0       1.750619      5.294286     12.317892     0.007334   -0.013212    0.005072
           107    0       3.512968      3.501780     10.566230     0.021869    0.029573   -0.031936
           108    0       5.290600      5.284738     12.304774    -0.007018   -0.002804    0.004246
           109    0       7.045121      3.519661     10.568138     0.004508    0.002186   -0.021558
           110    0       8.816429      5.283139     12.335610     0.002945   -0.017072   -0.012357
           111    0      10.570957      3.527955     10.560012    -0.026319   -0.010071   -0.008026
           112    0      12.314488      5.271410     12.308499     0.004786    0.004566    0.024785
           113    0      -0.004013      7.024410     10.580274    -0.007050    0.033464   -0.010791
           114    0       1.749296      8.814811     12.325671     0.001109   -0.014451   -0.002143
           115    0       3.522225      7.024871     10.548858    -0.008193    0.020556    0.013595
           116    0       5.277578      8.817555     12.336973     0.001044   -0.022584   -0.021730
           117    0       7.042992      7.036786     10.572945     0.012456    0.014723    0.003060
           118    0       8.794418      8.810637     12.340177     0.006351    0.002009   -0.021015
           119    0      10.570230      7.022956     10.571925    -0.020143    0.021893   -0.007426
           120    0      12.316905      8.797658     12.335792    -0.010855    0.003218   -0.002452
           121    0      -0.000213     10.573392     10.578928    -0.000052    0.002651   -0.007396
           122    0       1.764755     12.338137     12.338222     0.003041   -0.013239   -0.014888
           123    0       3.500884     10.543644     10.572729     0.013271    0.022141    0.001997
           124    0       5.294923     12.319276     12.315863    -0.027167   -0.003825   -0.003930
           125    0       7.023888     10.557928     10.561506     0.025374   -0.004710   -0.016932
           126    0       8.790666     12.320013     12.331097     0.026611   -0.014749   -0.014675
           127    0      10.558104     10.547811     10.573361    -0.008935    0.008011    0.011964
           128    0      12.334548     12.319920     12.341177    -0.012727   -0.020369   -0.016911
 Energy
       -204.447199960000
 PlusStress:  xx          yy          zz          yz          xz          xy
        35.95872    35.97303    35.97034     0.00157     0.00571    -0.00053
 Feature   EFS_by	VASP
 Feature   ind	3
END_CFG

