BEGIN_CFG
 Size
    128
 Supercell
        14.084000      0.000000      0.000000
         0.000000     14.084000      0.000000
         0.000000      0.000000     14.084000
 AtomData:  id type       cartes_x      cartes_y      cartes_z           fx          fy          fz
             1    0       0.019370     14.069170     14.065660    -0.043199    0.062177    0.032741
             2    0       1.744380      1.753230      1.775940     0.015242    0.004174   -0.041491
             3    0       3.539310      0.018060     14.074210    -0.016243   -0.017621    0.013934
             4    0       5.279300      1.766530      1.744540    -0.007787   -0.002047    0.056333
             5    0       7.048610     14.069370     14.071840     0.025802    0.032528    0.026694
             6    0       8.809490      1.757630      1.757770     0.004259   -0.009150   -0.008713
             7    0      10.582200     14.066900     14.071370    -0.013276    0.018917    0.022255
             8    0      12.311600      1.769310      1.781850     0.040154   -0.059709   -0.045124
             9    0      14.079050      3.522310      0.006810     0.006639   -0.015586   -0.033593
            10    0       1.748900      5.286870      1.749440     0.012621   -0.005398    0.041738
            11    0       3.523860      3.539000     14.081670    -0.025448   -0.019805    0.007892
            12    0       5.293100      5.291370      1.761840    -0.039075   -0.016381    0.026434
            13    0       7.022440      3.517920      0.002410     0.047128    0.012108   -0.020127
            14    0       8.792230      5.279220      1.771910     0.039507   -0.016824   -0.018342
            15    0      10.573900      3.513150      0.017610    -0.029414    0.016266   -0.005432
            16    0      12.323900      5.265290      1.758430    -0.019822    0.063162   -0.002942
            17    0       0.007560      7.046950     14.080950    -0.036911    0.006620    0.019778
            18    0       1.775170      8.810530      1.778970    -0.023333    0.005426   -0.071217
            19    0       3.517600      7.034770      0.001520    -0.005861    0.014940   -0.033107
            20    0       5.263080      8.790410      1.742930     0.057792    0.042914    0.021279
            21    0       7.056660      7.037500     14.079340    -0.006106    0.024841    0.012294
            22    0       8.803820      8.819140      1.757710     0.004539   -0.041875    0.004911
            23    0      10.548000      7.043370     14.072820     0.052538   -0.000161    0.030211
            24    0      12.334600      8.794520      1.768810    -0.018634   -0.002118    0.000786
            25    0      14.080340     10.553000      0.001720     0.001963    0.003429    0.012042
            26    0       1.765680     12.329100      1.748690     0.000429   -0.009119    0.013313
            27    0       3.521220     10.558300     14.065740    -0.023344    0.036721    0.044822
            28    0       5.265250     12.343200      1.780610    -0.008566   -0.064575   -0.027896
            29    0       7.034480     10.580600     14.079060    -0.005141   -0.018811    0.026919
            30    0       8.801050     12.306300      1.765420     0.020843    0.044654    0.007286
            31    0      10.555000     10.553900      0.020150     0.033465    0.014967   -0.016578
            32    0      12.332600     12.324800      1.762440     0.003556    0.016280    0.010511
            33    0       0.014280      0.002060      3.536780    -0.041161   -0.030800   -0.010206
            34    0       1.779520      1.756860      5.271310    -0.034488    0.006718    0.052280
            35    0       3.504040      0.005720      3.529330     0.012037   -0.002425   -0.006349
            36    0       5.269780      1.773540      5.291080     0.028992   -0.005882   -0.038121
            37    0       7.022950     14.078790      3.502980     0.042782    0.013278    0.057164
            38    0       8.790820      1.769470      5.299480     0.005526   -0.013438   -0.030879
            39    0      10.558600      0.014720      3.512960    -0.023282   -0.033197    0.011625
            40    0      12.321500      1.749990      5.263880    -0.025236    0.026635    0.041672
            41    0      14.075870      3.523780      3.515440     0.018593   -0.011853    0.023746
            42    0       1.780840      5.262920      5.282950    -0.024805    0.032956    0.010229
            43    0       3.502340      3.518560      3.530620     0.040422    0.014262   -0.046999
            44    0       5.267500      5.274520      5.285800     0.047467    0.009838   -0.034062
            45    0       7.053040      3.512310      3.508030    -0.017070   -0.012107    0.037793
            46    0       8.782610      5.262490      5.297330     0.042178    0.033432   -0.023340
            47    0      10.571800      3.516920      3.520850    -0.040070    0.024154    0.046013
            48    0      12.342300      5.285250      5.270970    -0.018896   -0.007954    0.016436
            49    0       0.017210      7.050860      3.523020    -0.040722   -0.020492    0.001020
            50    0       1.745260      8.803770      5.264890     0.029368    0.005562    0.044251
            51    0       3.514930      7.061660      3.512970    -0.010247   -0.060085    0.023596
            52    0       5.270130      8.794240      5.264900     0.017357    0.031148    0.014316
            53    0       7.036910      7.029340      3.520900     0.013336    0.025676    0.013149
            54    0       8.789290      8.805200      5.277830     0.063110    0.005103   -0.005396
            55    0      10.549300      7.041410      3.505790    -0.009472   -0.011847    0.025296
            56    0      12.302900      8.809860      5.277160     0.029760   -0.002466   -0.006757
            57    0       0.017790     10.567900      3.502670    -0.035155    0.007480    0.021071
            58    0       1.764930     12.319400      5.278680     0.017088    0.011845    0.032941
            59    0       3.509580     10.555000      3.520880     0.029119    0.037056    0.010019
            60    0       5.263380     12.343000      5.279970     0.032615   -0.039689    0.000231
            61    0       7.056660     10.549800      3.504820    -0.048864    0.025034    0.031188
            62    0       8.814770     12.328800      5.291920    -0.011030    0.001653   -0.042077
            63    0      10.573600     10.578500      3.523170    -0.015337   -0.023342   -0.002751
            64    0      12.315700     12.310000      5.274670     0.020790    0.022049    0.006144
            65    0      14.071990      0.015880      7.040590     0.026028   -0.043982   -0.009728
            66    0       1.777810      1.741120      8.799820    -0.020670    0.044148   -0.027550
            67    0       3.540280      0.014650      7.057530    -0.046857   -0.034572   -0.040585
            68    0       5.286700      1.741750      8.793930     0.014957    0.050751    0.029995
            69    0       7.035740      0.013850      7.041140     0.008147   -0.026976   -0.008617
            70    0       8.783730      1.762650      8.796180     0.046531    0.006111    0.023263
            71    0      10.547700     14.076150      7.040330     0.044602    0.045073    0.002219
            72    0      12.333000      1.774470      8.797810    -0.058489   -0.027405   -0.002618
            73    0       0.009530      3.502590      7.034720    -0.007336    0.029350   -0.007815
            74    0       1.742790      5.296840      8.818750     0.039171   -0.050777   -0.049660
            75    0       3.540590      3.524630      7.034290    -0.047701   -0.008267    0.082037
            76    0       5.300910      5.302200      8.786040    -0.020218   -0.052827    0.023438
            77    0       7.030870      3.540370      7.040260     0.001836   -0.033608    0.013618
            78    0       8.787860      5.289570      8.802720     0.017366   -0.026588    0.022524
            79    0      10.546200      3.531340      7.052920     0.029608   -0.030897   -0.027016
            80    0      12.313900      5.263800      8.816800     0.021047    0.028770   -0.044612
            81    0       0.019640      7.053260      7.048250    -0.036679   -0.027968   -0.005442
            82    0       1.771830      8.821840      8.795520    -0.021852   -0.033121    0.030165
            83    0       3.539520      7.038150      7.046410    -0.045262    0.004833   -0.033930
            84    0       5.267080      8.801440      8.805200     0.061068    0.005110    0.009385
            85    0       7.060560      7.057830      7.039300    -0.031668   -0.002863   -0.016253
            86    0       8.802520      8.782610      8.802820     0.019557    0.027473    0.017533
            87    0      10.575900      7.023960      7.044070     0.000974    0.020799   -0.005848
            88    0      12.343000      8.807870      8.825140    -0.009738   -0.026115   -0.016004
            89    0       0.020080     10.560200      7.037070    -0.044548    0.023185   -0.012630
            90    0       1.766080     12.321600      8.807010    -0.017627    0.009616   -0.011972
            91    0       3.534490     10.547900      7.054900    -0.012741    0.027256   -0.035136
            92    0       5.268060     12.320400      8.818120     0.002390   -0.009029   -0.023115
            93    0       7.052270     10.578600      7.031480    -0.035661   -0.005268    0.015814
            94    0       8.816500     12.321900      8.786050    -0.043738   -0.009814    0.042287
            95    0      10.575600     10.557600      7.063090    -0.029118   -0.035839   -0.022662
            96    0      12.307200     12.310800      8.793150     0.042413    0.025195    0.018129
            97    0      14.075890      0.018890     10.559100    -0.007573   -0.032504   -0.004671
            98    0       1.775480      1.771430     12.305300    -0.047440    0.003123    0.044028
            99    0       3.509500      0.010630     10.567500     0.012567   -0.049258   -0.007030
           100    0       5.288870      1.751810     12.308900     0.013734    0.006372   -0.015906
           101    0       7.035950     14.064270     10.558300     0.046278    0.028456   -0.009559
           102    0       8.811780      1.779220     12.322700    -0.007833   -0.026175   -0.010816
           103    0      10.561600     14.065530     10.575800    -0.009731    0.032848   -0.036445
           104    0      12.315000      1.778920     12.307800     0.006930   -0.020302    0.027459
           105    0       0.007490      3.532270     10.556400     0.006487   -0.036128   -0.009066
           106    0       1.750620      5.294290     12.317900     0.016136   -0.027391    0.011654
           107    0       3.512970      3.501780     10.566200     0.043339    0.059124   -0.060010
           108    0       5.290600      5.284740     12.304800    -0.014688   -0.006823    0.011499
           109    0       7.045120      3.519660     10.568100     0.006960    0.004335   -0.039875
           110    0       8.816430      5.283140     12.335600     0.002529   -0.034574   -0.023207
           111    0      10.571000      3.527950     10.560000    -0.051942   -0.020269   -0.015443
           112    0      12.314500      5.271410     12.308500     0.012136    0.008166    0.049430
           113    0      14.079990      7.024410     10.580300    -0.013750    0.065727   -0.022802
           114    0       1.749300      8.814810     12.325700     0.001996   -0.030153   -0.003961
           115    0       3.522230      7.024870     10.548900    -0.016095    0.039452    0.026641
           116    0       5.277580      8.817560     12.337000     0.002638   -0.046549   -0.042264
           117    0       7.042990      7.036790     10.572900     0.022755    0.028537    0.006482
           118    0       8.794420      8.810640     12.340200     0.010339    0.003977   -0.040847
           119    0      10.570200      7.022960     10.571900    -0.039147    0.043694   -0.016395
           120    0      12.316900      8.797660     12.335800    -0.020284    0.006270   -0.005778
           121    0      14.083790     10.573400     10.578900    -0.000699    0.005524   -0.016385
           122    0       1.764760     12.338100     12.338200     0.005887   -0.024722   -0.029259
           123    0       3.500880     10.543600     10.572700     0.027045    0.043099    0.003117
           124    0       5.294920     12.319300     12.315900    -0.053260   -0.005160   -0.006207
           125    0       7.023890     10.557900     10.561500     0.048797   -0.009162   -0.033674
           126    0       8.790670     12.320000     12.331100     0.051166   -0.027869   -0.028109
           127    0      10.558100     10.547800     10.573400    -0.016230    0.016854    0.021615
           128    0      12.334500     12.319900     12.341200    -0.023860   -0.039523   -0.034282
 Energy
       -204.411311460000
 PlusStress:  xx          yy          zz          yz          xz          xy
        35.87635    35.92301    35.91745     0.00394     0.01990    -0.00210
 Feature   EFS_by	VASP
END_CFG

