BEGIN_CFG
 Size
    6
 Supercell
        -1.591690      1.591520      1.641560
         3.138920      3.139150      0.000071
        -3.069180      3.069060     -6.143750
 AtomData:  id type       cartes_x      cartes_y      cartes_z           fx          fy          fz
             1    1      -4.549140      4.588240     -4.540560    -0.005027    0.004870    0.049278
             2    2       0.104660      3.073820      0.036580    -0.614812    0.613580    0.241850
             3    2      -1.340050      1.379180     -1.500510     0.246653   -0.244512   -0.143448
             4    2      -0.156940      3.335500     -2.876120     0.088327   -0.089186   -0.339791
             5    2      -3.082450      3.121610     -2.993780    -0.200719    0.201422    0.251081
             6    2      -1.548060      4.726440     -4.709260     0.485576   -0.486173   -0.058971
 Energy
        -44.493305890000
 PlusStress:  xx          yy          zz          yz          xz          xy
         1.63070     1.63147     0.98021     0.05288    -0.05386    -1.33600
 Feature   EFS_by	VASP
END_CFG

BEGIN_CFG
 Size
    12
 Supercell
         0.000000      2.310780      2.310780
         0.000853      5.606590     -5.606590
        -6.886840      0.000544     -0.000544
 AtomData:  id type       cartes_x      cartes_y      cartes_z           fx          fy          fz
             1    1      -0.972620      5.232250     -5.232250     0.132554    0.255550   -0.255572
             2    1      -4.134750      2.464560     -0.153790    -0.131973   -0.255815    0.255825
             3    1      -0.691160      3.584320     -1.273540    -0.131945    0.255895   -0.255904
             4    1      -4.416210      4.112500     -4.112500     0.132089   -0.255618    0.255613
             5    2      -2.670350      2.325250     -2.325250     0.146042    0.268734   -0.268743
             6    2      -0.200190      3.609980     -3.609980     0.311994   -0.178678    0.178679
             7    2      -5.880310      6.284190     -3.973410    -0.145830    0.269175   -0.269198
             8    2      -3.644140      2.438830      2.182720     0.312039    0.178826   -0.178805
             9    2      -1.464080      1.962170      0.348600    -0.312446   -0.178205    0.178215
            10    2      -6.113890      1.413170     -1.413170     0.145936   -0.268854    0.268843
            11    2      -4.907180      4.086840     -1.776060    -0.312309    0.178229   -0.178221
            12    2      -2.437020      5.371560     -3.060790    -0.146150   -0.269240    0.269266
 Energy
        -86.715458570000
 PlusStress:  xx          yy          zz          yz          xz          xy
         6.13646     1.34068     1.34065    -2.39320     0.00009    -0.00010
 Feature   EFS_by	VASP
END_CFG

BEGIN_CFG
 Size
    12
 Supercell
         0.000000      0.000000      4.256060
         6.014140      5.351830      0.000000
        -2.501850      4.593440      0.000000
 AtomData:  id type       cartes_x      cartes_y      cartes_z           fx          fy          fz
             1    1       5.104420      5.671820      0.000000    -0.224466    0.001249   -0.000002
             2    1       0.846760      5.293240      0.000000    -0.220045   -0.002419   -0.000002
             3    1      -1.466270      5.087180      2.128030     0.222278   -0.000268   -0.000001
             4    1       2.791480      5.466150      2.128030     0.222340    0.000956   -0.000003
             5    2       1.046310      2.035570      0.000000    -0.120303   -0.476814   -0.000010
             6    2       3.007420      3.942580      0.000000     0.065215    0.460440   -0.000004
             7    2      -1.252310      3.564760      0.000000     0.091204    0.440904    0.000004
             8    2       2.801290      7.010240      0.000000    -0.107514   -0.500334    0.000009
             9    2       0.631660      6.816110      2.128030    -0.078522   -0.455321    0.000000
            10    2       4.890560      7.195030      2.128030    -0.093022   -0.447524   -0.000006
            11    2       0.835810      3.749500      2.128030     0.123231    0.493188    0.000014
            12    2       2.592040      8.723000      2.128030     0.119604    0.485946    0.000002
 Energy
        -88.049958660000
 PlusStress:  xx          yy          zz          yz          xz          xy
         0.64113     0.87884     0.66385     0.00000     0.00000    -0.53917
 Feature   EFS_by	VASP
END_CFG

BEGIN_CFG
 Size
    12
 Supercell
         0.000000      0.000000      4.256060
         6.014140      5.351830      0.000000
        -2.501850      4.593440      0.000000
 AtomData:  id type       cartes_x      cartes_y      cartes_z           fx          fy          fz
             1    1       5.104420      5.671820      0.000000    -0.224466    0.001249   -0.000002
             2    1       0.846760      5.293240      0.000000    -0.220045   -0.002419   -0.000002
             3    1      -1.466270      5.087180      2.128030     0.222278   -0.000268   -0.000001
             4    1       2.791480      5.466150      2.128030     0.222340    0.000956   -0.000003
             5    2       1.046310      2.035570      0.000000    -0.120303   -0.476814   -0.000010
             6    2       3.007420      3.942580      0.000000     0.065215    0.460440   -0.000004
             7    2      -1.252310      3.564760      0.000000     0.091204    0.440904    0.000004
             8    2       2.801290      7.010240      0.000000    -0.107514   -0.500334    0.000009
             9    2       0.631660      6.816110      2.128030    -0.078522   -0.455321    0.000000
            10    2       4.890560      7.195030      2.128030    -0.093022   -0.447524   -0.000006
            11    2       0.835810      3.749500      2.128030     0.123231    0.493188    0.000014
            12    2       2.592040      8.723000      2.128030     0.119604    0.485946    0.000002
 Energy
        -88.049958660000
 PlusStress:  xx          yy          zz          yz          xz          xy
         0.64113     0.87884     0.66385     0.00000     0.00000    -0.53917
 Feature   EFS_by	VASP
END_CFG

BEGIN_CFG
 Size
    8
 Supercell
         2.817340     -2.222100      0.127021
        -0.028511     -0.419159     -6.700380
         1.593650      4.898630     -0.313229
 AtomData:  id type       cartes_x      cartes_y      cartes_z           fx          fy          fz
             1    0       1.573370      4.798250     -1.057430    -0.076201   -0.108306   -0.053410
             2    0       1.584260      1.960800     -0.200520     0.076030    0.108331    0.052199
             3    0       1.562000      4.631010     -3.730830    -0.075724   -0.100779    0.066976
             4    0       1.567130      1.708880     -4.227500     0.075487    0.100949   -0.066079
             5    1       2.411950      2.890290     -2.283600    -0.059050   -0.073715    0.004825
             6    1       3.534510      1.227510     -5.547720     0.059229    0.073456   -0.004926
             7    2       2.550980      0.177850     -2.114500     0.008563    0.013472   -0.000688
             8    2       1.801830     -0.958680     -5.403580    -0.008333   -0.013407    0.001104
 Energy
        -45.315065030000
 PlusStress:  xx          yy          zz          yz          xz          xy
         0.59387    -0.59630     1.29379     0.13035     0.17390    -2.73092
 Feature   EFS_by	VASP
END_CFG

BEGIN_CFG
 Size
    12
 Supercell
         1.226240      4.664620     -1.346990
         6.418860     -0.058084     -0.234049
         0.289146     -0.017042     -6.404230
 AtomData:  id type       cartes_x      cartes_y      cartes_z           fx          fy          fz
             1    0       1.595560      4.582520     -1.485940    -0.303070   -0.294765   -0.165476
             2    0       2.269580      1.731780     -1.112700     0.167397    0.067280   -0.418249
             3    0       2.388350      2.894580     -3.556200    -0.167328   -0.067293    0.417619
             4    0       3.062360      0.043850     -3.182970     0.302442    0.294487    0.165027
             5    0       4.488290      1.832550     -5.284430     0.321124   -0.033031   -0.045678
             6    0       6.877650      2.718640     -6.022790    -0.321279    0.033293    0.045622
             7    0       4.695070      3.886710     -7.360390     0.248789   -0.324659   -0.281860
             8    0       4.974330      1.326030     -1.750450    -0.006218   -0.147807    0.136174
             9    0       6.102450      3.242270     -3.152630     0.006372    0.147848   -0.135935
            10    0       6.670860      0.664530     -3.946860    -0.248648    0.324271    0.281896
            11    1       2.241250      1.109290     -5.238350    -0.211703   -0.084506    0.351347
            12    1       2.705800      3.499980     -5.834870     0.212122    0.084883   -0.350487
 Energy
        -50.339918320000
 PlusStress:  xx          yy          zz          yz          xz          xy
         2.09634     1.34187     1.51353     0.36759     0.04895     0.64930
 Feature   EFS_by	VASP
END_CFG

BEGIN_CFG
 Size
    8
 Supercell
         2.256840     -0.000069     -2.254980
         4.107610      3.396380      4.110920
         4.132560     -3.334540      4.136390
 AtomData:  id type       cartes_x      cartes_y      cartes_z           fx          fy          fz
             1    0       3.397480      2.753030      3.386910    -0.193676    0.377815   -0.193449
             2    0       5.816400     -2.442100      3.551410    -0.327900   -0.048168   -0.328278
             3    0       4.380740     -0.123630      4.371160    -0.134670   -0.426031   -0.134265
             4    0       1.542410     -0.876840      1.530390     0.327874    0.048256    0.328642
             5    0       3.936390      0.658950      1.669420     0.193491   -0.377787    0.193703
             6    0       7.085700      0.201080      4.821580     0.134540    0.425913    0.134525
             7    1       5.604430      1.716280      3.339040     0.000742    0.000066   -0.001021
             8    1       5.861990     -1.638840      5.853690    -0.000400   -0.000064    0.000144
 Energy
        -35.048187830000
 PlusStress:  xx          yy          zz          yz          xz          xy
         0.62470     0.55634     0.62478    -0.00044    -0.06805     0.00003
 Feature   EFS_by	VASP
END_CFG

BEGIN_CFG
 Size
    8
 Supercell
         2.256840     -0.000069     -2.254980
         4.107610      3.396380      4.110920
         4.132560     -3.334540      4.136390
 AtomData:  id type       cartes_x      cartes_y      cartes_z           fx          fy          fz
             1    0       3.397480      2.753030      3.386910    -0.193676    0.377815   -0.193449
             2    0       5.816400     -2.442100      3.551410    -0.327900   -0.048168   -0.328278
             3    0       4.380740     -0.123630      4.371160    -0.134670   -0.426031   -0.134265
             4    0       1.542410     -0.876840      1.530390     0.327874    0.048256    0.328642
             5    0       3.936390      0.658950      1.669420     0.193491   -0.377787    0.193703
             6    0       7.085700      0.201080      4.821580     0.134540    0.425913    0.134525
             7    1       5.604430      1.716280      3.339040     0.000742    0.000066   -0.001021
             8    1       5.861990     -1.638840      5.853690    -0.000400   -0.000064    0.000144
 Energy
        -35.048187830000
 PlusStress:  xx          yy          zz          yz          xz          xy
         0.62470     0.55634     0.62478    -0.00044    -0.06805     0.00003
 Feature   EFS_by	VASP
END_CFG

BEGIN_CFG
 Size
    11
 Supercell
         3.312560      4.616010      1.850370
         6.113440      0.438134     -2.422380
         0.542547      1.921510     -5.632220
 AtomData:  id type       cartes_x      cartes_y      cartes_z           fx          fy          fz
             1    0       3.988910      5.894090     -4.054220    -0.150829    0.007215   -0.129435
             2    0       2.001470      2.160100     -0.268420    -0.148577   -0.081647    0.078968
             3    0       5.375650      4.708690     -0.226380     0.000227   -0.000250   -0.000133
             4    0       5.437280      2.641260     -2.034710     0.148520    0.081732   -0.078656
             5    0       7.304940      5.444800     -2.030760     0.150439   -0.007651    0.129497
             6    0       3.150750      4.194620     -1.749020    -0.006343    0.198191   -0.060873
             7    0       1.712840      2.381250     -3.592580    -0.014936    0.100381    0.168300
             8    0       6.268450      4.341620     -4.342780     0.015005   -0.100085   -0.168514
             9    0       4.830530      2.528260     -6.186330     0.006118   -0.198364    0.060347
            10    1       6.176520      1.884460     -4.243280     0.354786   -0.225715   -0.049898
            11    1       7.918200      5.276550     -6.114460    -0.354410    0.226192    0.050397
 Energy
        -46.960460920000
 PlusStress:  xx          yy          zz          yz          xz          xy
        -2.61082    -2.12194    -1.04180     0.15335     0.28836     1.13834
 Feature   EFS_by	VASP
END_CFG

BEGIN_CFG
 Size
    9
 Supercell
         3.124170     -5.411210      0.000000
         3.124170      5.411210      0.000000
         0.000000      0.000000      3.860430
 AtomData:  id type       cartes_x      cartes_y      cartes_z           fx          fy          fz
             1    1       6.248330      0.000000      1.930220    -0.000028   -0.000069   -0.000047
             2    1       3.124170      1.803740      0.000000    -0.000090    0.000066    0.000012
             3    1       3.124170     -1.803740      0.000000    -0.000307   -0.000084    0.000012
             4    2       3.901610     -4.064650      0.000000     0.487162    0.844207    0.000045
             5    2       1.812920      3.140060      1.930220    -0.098931   -0.171146   -0.000033
             6    2       3.901610      4.064650      0.000000     0.487689   -0.844357    0.000038
             7    2       4.693460      0.000000      0.000000    -0.974377    0.000332    0.000039
             8    2       1.812920     -3.140060      1.930220    -0.098983    0.171358   -0.000034
             9    2       2.622500      0.000000      1.930220     0.197866   -0.000306   -0.000033
 Energy
        -64.641272800000
 PlusStress:  xx          yy          zz          yz          xz          xy
         5.72597     5.72429     5.37196     0.00001    -0.00000     0.00174
 Feature   EFS_by	VASP
END_CFG

BEGIN_CFG
 Size
    8
 Supercell
         2.184940      2.955160      1.990220
         2.298920     -0.000213     -6.912320
        -2.184690      2.955280     -1.990320
 AtomData:  id type       cartes_x      cartes_y      cartes_z           fx          fy          fz
             1    0      -1.962440      2.955260     -2.180360     0.025732    0.000059   -0.023075
             2    0       2.128820      2.955090     -2.282640    -0.025636    0.000021    0.023207
             3    1       0.083260      4.433420     -2.231520    -0.000048   -0.003628   -0.000153
             4    1       0.083130      1.476940     -2.231470    -0.000023    0.003598   -0.000162
             5    2      -0.011010      2.955150     -4.322580    -0.039309    0.000005    0.047570
             6    2       2.325120      4.432650     -4.692550    -0.000171    0.000028    0.000329
             7    2       0.177400      2.955210     -0.140410     0.039681   -0.000013   -0.048061
             8    2       2.325000      1.477440     -4.692500    -0.000225   -0.000071    0.000345
 Energy
        -53.098355040000
 PlusStress:  xx          yy          zz          yz          xz          xy
         0.79648     0.24118     0.90637    -0.00053    -0.59387    -0.00064
 Feature   EFS_by	VASP
END_CFG

BEGIN_CFG
 Size
    8
 Supercell
         3.674380     -0.020952      3.388830
         0.352626      4.066690     -2.887440
        -0.365760      4.067570      2.867390
 AtomData:  id type       cartes_x      cartes_y      cartes_z           fx          fy          fz
             1    0      -0.311590      4.064100      2.819990    -0.006378    0.003906   -0.006723
             2    0       0.054440      4.064960     -0.047260    -0.000425   -0.008704    0.018964
             3    1       1.730220      6.095420      2.912440    -0.026046    0.000912    0.075938
             4    1       1.884740      0.227490      1.686010     0.011541   -0.456707   -0.019249
             5    1       3.669150      2.016390      1.914750     0.457478   -0.005179    0.053360
             6    1       0.106220      2.024960      1.461310    -0.454755    0.005916   -0.074162
             7    1       1.887760      3.822350      1.690440     0.001177    0.453834   -0.004885
             8    2       2.014930      6.089590      0.589040     0.017409    0.006022   -0.043243
 Energy
        -46.224472430000
 PlusStress:  xx          yy          zz          yz          xz          xy
         2.10360     2.06888     0.44048     0.09554     0.09114     0.02244
 Feature   EFS_by	VASP
END_CFG

BEGIN_CFG
 Size
    8
 Supercell
         0.702426      3.115180     -2.092390
         3.114670      0.703380      2.092810
         3.631800     -3.629940     -4.185090
 AtomData:  id type       cartes_x      cartes_y      cartes_z           fx          fy          fz
             1    0       0.728550      3.108530     -2.093510    -0.004732    0.005227    0.006067
             2    0       3.749490      0.088750     -2.092210    -0.000499    0.000916    0.001192
             3    1       1.331410      0.597370     -2.146730    -0.326284    0.325966    0.375778
             4    1       2.543730      1.294290     -4.185220    -0.004393    0.004171    0.004699
             5    1       3.052650     -1.122990     -4.130200     0.331598   -0.331724   -0.382479
             6    1       2.537530     -0.608530     -0.054130    -0.326303    0.325951    0.375769
             7    1       4.961200      0.786280     -4.129990     0.331601   -0.331613   -0.382418
             8    2       1.933530      1.903780      0.000410    -0.000987    0.001107    0.001392
 Energy
        -46.331225390000
 PlusStress:  xx          yy          zz          yz          xz          xy
         0.46494     0.46640     0.21477    -0.88055     0.88053     0.76396
 Feature   EFS_by	VASP
END_CFG

BEGIN_CFG
 Size
    8
 Supercell
         0.702426      3.115180     -2.092390
         3.114670      0.703380      2.092810
         3.631800     -3.629940     -4.185090
 AtomData:  id type       cartes_x      cartes_y      cartes_z           fx          fy          fz
             1    0       0.728550      3.108530     -2.093510    -0.004732    0.005227    0.006067
             2    0       3.749490      0.088750     -2.092210    -0.000499    0.000916    0.001192
             3    1       1.331410      0.597370     -2.146730    -0.326284    0.325966    0.375778
             4    1       2.543730      1.294290     -4.185220    -0.004393    0.004171    0.004699
             5    1       3.052650     -1.122990     -4.130200     0.331598   -0.331724   -0.382479
             6    1       2.537530     -0.608530     -0.054130    -0.326303    0.325951    0.375769
             7    1       4.961200      0.786280     -4.129990     0.331601   -0.331613   -0.382418
             8    2       1.933530      1.903780      0.000410    -0.000987    0.001107    0.001392
 Energy
        -46.331225390000
 PlusStress:  xx          yy          zz          yz          xz          xy
         0.46494     0.46640     0.21477    -0.88055     0.88053     0.76396
 Feature   EFS_by	VASP
END_CFG

BEGIN_CFG
 Size
    11
 Supercell
         0.002671      1.990680      2.000620
         2.799440     -0.086327      0.083603
         2.120770     12.536300    -10.444700
 AtomData:  id type       cartes_x      cartes_y      cartes_z           fx          fy          fz
             1    0       0.024730      2.008590      1.980260    -0.014039   -0.271675    0.286017
             2    0       2.956350      3.991240      0.017440     0.014152    0.272230   -0.286087
             3    0       1.750660      6.201910     -4.163830     0.000045   -0.003103    0.005459
             4    0       3.348530     10.343500     -6.283800    -0.000046    0.003012   -0.004684
             5    1       1.489210      2.004580     -0.001460    -0.000393   -0.000344    0.000006
             6    1       1.617710      4.027470     -2.006020     0.006587    0.284112   -0.285451
             7    1       3.088830      6.132540     -2.108800    -0.010372   -0.211700    0.216228
             8    1       3.214410      8.173650     -4.132180     0.011950    0.204037   -0.208503
             9    1       1.884780      8.371800     -6.315450    -0.012223   -0.204509    0.208815
            10    1       2.010350     10.412900     -8.338830     0.010510    0.211811   -0.216640
            11    1       3.481470     12.518000     -8.441610    -0.006171   -0.283872    0.284839
 Energy
        -58.553893510000
 PlusStress:  xx          yy          zz          yz          xz          xy
         1.09455    -0.47281    -0.09524     0.78357     0.12050    -0.17886
 Feature   EFS_by	VASP
END_CFG

BEGIN_CFG
 Size
    5
 Supercell
         0.624555      2.429770      2.526660
         4.813570      1.777490     -0.380318
        -1.752600      2.305450     -4.299010
 AtomData:  id type       cartes_x      cartes_y      cartes_z           fx          fy          fz
             1    0      -1.091630      4.730750     -1.776970    -0.000540    0.000315   -0.000224
             2    2       2.013520      2.147270     -0.053640    -0.104554    0.071863   -0.011597
             3    2       3.633390      4.407470     -0.112650    -0.155377   -0.103192    0.122322
             4    2       0.124970      2.096310     -2.049260     0.155264    0.102553   -0.121761
             5    2       1.744830      4.356510     -2.108270     0.105206   -0.071540    0.011260
 Energy
        -35.720956660000
 PlusStress:  xx          yy          zz          yz          xz          xy
        -0.09966     0.61394     0.66995     1.57343     0.38213     0.13027
 Feature   EFS_by	VASP
END_CFG

BEGIN_CFG
 Size
    12
 Supercell
         2.480530      0.187079      4.077950
         3.068050      5.715450      0.683690
        -2.562930      4.308170      4.173450
 AtomData:  id type       cartes_x      cartes_y      cartes_z           fx          fy          fz
             1    1       4.843760      5.328920      4.803190     0.113056   -0.002138    0.167808
             2    1       2.521640      5.972080      4.601400    -0.015003    0.029936   -0.005488
             3    1       0.621670      4.517140      4.234810    -0.101635    0.005605   -0.175585
             4    1      -0.065250      6.914540      4.737950     0.001781    0.000258   -0.000981
             5    1       1.477130      2.134890      4.004600    -0.003343   -0.001644    0.002190
             6    1       3.196400      8.885790      6.865140     0.009071   -0.031812    0.009609
             7    2       2.040320      8.373460      4.794640    -0.040688    0.148626    0.003362
             8    2       0.972590      0.787490      1.730020     0.035034   -0.131210   -0.372545
             9    2       1.195890      6.297010      2.594750     0.033623   -0.149235    0.000099
            10    2       0.980380      5.546660      6.797320     0.030792   -0.185562    0.348554
            11    2       3.141030      3.963500      3.073630    -0.350704    0.105669   -0.150285
            12    2       0.286990      3.491600      1.714200     0.288016    0.211505    0.173263
 Energy
        -84.014148580000
 PlusStress:  xx          yy          zz          yz          xz          xy
        -0.31411    -1.02935     0.54326    -0.02658     0.84918     0.03767
 Feature   EFS_by	VASP
END_CFG

BEGIN_CFG
 Size
    5
 Supercell
         0.624555      2.429770      2.526660
         4.813570      1.777490     -0.380318
        -1.752600      2.305450     -4.299010
 AtomData:  id type       cartes_x      cartes_y      cartes_z           fx          fy          fz
             1    0      -1.091630      4.730750     -1.776970    -0.000540    0.000315   -0.000224
             2    2       2.013520      2.147270     -0.053640    -0.104554    0.071863   -0.011597
             3    2       3.633390      4.407470     -0.112650    -0.155377   -0.103192    0.122322
             4    2       0.124970      2.096310     -2.049260     0.155264    0.102553   -0.121761
             5    2       1.744830      4.356510     -2.108270     0.105206   -0.071540    0.011260
 Energy
        -35.720956660000
 PlusStress:  xx          yy          zz          yz          xz          xy
        -0.09966     0.61394     0.66995     1.57343     0.38213     0.13027
 Feature   EFS_by	VASP
END_CFG

BEGIN_CFG
 Size
    8
 Supercell
         2.847350     -2.881690     -0.021066
        -3.013470     -0.107847     -2.703520
         3.411260      3.434100     -6.956370
 AtomData:  id type       cartes_x      cartes_y      cartes_z           fx          fy          fz
             1    0       2.743360      2.746350     -6.164120     0.328199    0.322954   -0.375737
             2    0       1.872880     -0.973700     -5.048630    -0.322527   -0.320457    0.366432
             3    0       1.135060     -1.736840     -1.170390     0.322845    0.320639   -0.366511
             4    0       0.828490      0.858900     -6.990220    -0.328006   -0.322907    0.375948
             5    0       0.080300      0.085580     -3.098980     0.000232    0.000153   -0.000060
             6    1       3.209600      0.361780     -6.587700     0.000261   -0.000540    0.000081
             7    1       2.172030      2.201900     -8.532980    -0.026196   -0.024599    0.009355
             8    1       1.399810      1.403350     -4.621360     0.025192    0.024758   -0.009509
 Energy
        -38.812449050000
 PlusStress:  xx          yy          zz          yz          xz          xy
         0.66182     0.62379     0.93486    -0.29537    -0.34570     0.29708
 Feature   EFS_by	VASP
END_CFG

BEGIN_CFG
 Size
    12
 Supercell
        -2.751280     -2.751100     -0.000200
        -0.690432      0.691011     -6.744810
         5.214270     -5.214140     -5.627450
 AtomData:  id type       cartes_x      cartes_y      cartes_z           fx          fy          fz
             1    0       1.814930     -7.282860    -12.114600     0.092397   -0.092285   -0.648950
             2    0      -1.149090     -1.568120     -2.526260    -0.324501    0.324568    0.414988
             3    0      -2.133550     -3.334740     -4.417230     0.041131   -0.041060    0.006343
             4    0      -0.402990     -2.313970     -6.449940     0.025519   -0.025487   -0.251784
             5    0      -1.130070     -4.338470     -1.884780    -0.025436    0.025503    0.251552
             6    0       0.600490     -3.317710     -3.917500    -0.041101    0.041184   -0.006579
             7    0      -0.383970     -5.084330     -5.808460     0.324581   -0.324489   -0.415238
             8    0       1.175850     -3.892710     -8.592440    -0.092279    0.092290    0.648934
             9    0       2.479490     -5.196760     -4.611550     0.023266   -0.023254   -0.017625
            10    0       1.201720     -6.669820     -9.350630    -0.023115    0.023226    0.017367
            11    1       0.265920     -5.734420     -3.458820    -0.036766    0.036443    0.245626
            12    1      -1.798980     -0.918030     -4.875910     0.036304   -0.036640   -0.244634
 Energy
        -48.971396060000
 PlusStress:  xx          yy          zz          yz          xz          xy
        -3.38109    -3.38124    -7.30441    -0.35207     0.35222    -1.34085
 Feature   EFS_by	VASP
END_CFG

BEGIN_CFG
 Size
    14
 Supercell
         4.061330     -0.342806     -1.144510
        -1.062850      2.319740      3.356880
         0.030299    -13.147000      4.015340
 AtomData:  id type       cartes_x      cartes_y      cartes_z           fx          fy          fz
             1    1       0.102840      0.044790      0.220540    -0.055393    0.617260   -0.446689
             2    1       0.871030      0.492960      2.783010    -0.023496    0.098217   -0.050023
             3    1       2.799800     -2.199680      2.665450     0.024050   -0.098119    0.049636
             4    1       0.569520     -3.728430      3.015560     0.055519   -0.617743    0.447084
             5    1       0.351320     -8.415300      3.625710    -0.000064    0.000226   -0.000563
             6    1       0.853190     -5.813320      4.614100    -0.037704    0.271809   -0.179692
             7    1       2.847940     -9.040370      4.849690     0.037285   -0.270591    0.179752
             8    2       2.607530     -7.092630      3.402410    -0.012267    0.022108   -0.023940
             9    2       2.156450    -10.080800      2.704500     0.012124   -0.022134    0.024339
            10    2       2.498780      0.235350      0.830300     0.029717   -0.263899    0.167933
            11    2       0.336180     -1.841820      1.618050    -0.000130    0.000304   -0.000492
            12    2       2.234900     -4.261790      1.261280    -0.029737    0.264116   -0.168135
            13    2       0.065770     -6.227670      1.980690     0.007874    0.057843   -0.046717
            14    2       0.636890    -10.602900      5.270730    -0.007776   -0.059396    0.047506
 Energy
        -97.681854460000
 PlusStress:  xx          yy          zz          yz          xz          xy
        -4.98466    -3.37805    -4.42197    -0.47334     0.05340     0.02745
 Feature   EFS_by	VASP
END_CFG
