BEGIN_CFG
 Size
    8
 Supercell
         3.919670     -0.074994     -0.046774
         1.970680      3.559760     -5.639720
        -1.879930      2.996160      2.356880
 AtomData:  id type       cartes_x      cartes_y      cartes_z           fx          fy          fz
             1    1       4.049320      6.404670     -3.381920     0.001366   -0.178056    0.119022
             2    1       2.032710      1.520860      0.149130     0.000136    0.000058   -0.000082
             3    1       0.106840      3.192980      0.397340    -0.001608    0.177960   -0.118872
             4    1       2.049140      3.325820     -1.656260     0.005686    0.165197    0.238260
             5    1       3.986960      3.275660     -3.685200    -0.005588   -0.165163   -0.238374
             6    2       3.980310      1.767840     -1.743910    -0.015997   -1.253290    1.028273
             7    2       0.118250      4.836320     -1.468900     0.000090    0.000139   -0.000117
             8    2       2.055790      4.833650     -3.597540     0.015915    1.253156   -1.028110
 Energy
        -53.287949270000
 PlusStress:  xx          yy          zz          yz          xz          xy
         5.81224     6.51099     3.14977    -0.57805    -0.03868     0.03854
 Feature   EFS_by	VASP
END_CFG

BEGIN_CFG
 Size
    11
 Supercell
         0.046376      2.716700     -2.768990
         2.821540     -0.045281      2.699950
         6.852560     -4.109200     -4.106900
 AtomData:  id type       cartes_x      cartes_y      cartes_z           fx          fy          fz
             1    0       6.818060     -4.047670     -4.045340     0.080589   -0.141681   -0.097439
             2    0       4.308060      1.249850     -1.490410    -0.079965    0.142100    0.097882
             3    0       6.973830     -1.421550     -1.417900     0.000221    0.000303    0.000279
             4    1       1.427540      1.364190     -1.377810    -0.030659    0.052302    0.033711
             5    1       2.846040     -0.052800     -0.051030     0.030189   -0.052536   -0.033902
             6    1       2.780340      0.003610     -2.738160     0.245559   -0.289410   -0.271113
             7    1       4.165730     -1.380100     -1.378160     0.005344   -0.034311   -0.012635
             8    1       5.646280     -0.096020     -2.836080    -0.290070    0.344563    0.313972
             9    1       5.479890     -2.701780     -2.699660     0.289316   -0.344700   -0.314052
            10    1       6.960360     -1.417720     -4.157590    -0.004797    0.034540    0.012807
            11    1       8.345840     -2.801400     -2.797560    -0.245727    0.288831    0.270491
 Energy
        -58.271182990000
 PlusStress:  xx          yy          zz          yz          xz          xy
        17.10451    17.73424    17.24657     4.23847    -1.44627    -3.59149
 Feature   EFS_by	VASP
END_CFG

BEGIN_CFG
 Size
    10
 Supercell
        -2.828690     -2.859530     -0.021573
         0.008410      2.850050     -2.856750
         2.812920     -5.624310     -5.623920
 AtomData:  id type       cartes_x      cartes_y      cartes_z           fx          fy          fz
             1    0      -2.677100     -0.121580     -2.988930    -0.407387    0.423931    0.419796
             2    0       0.024470     -2.810350     -5.674190     0.149627   -0.129864   -0.120304
             3    1      -1.450290     -1.356020     -1.366240     0.107089   -0.108668   -0.106790
             4    1       0.020810      0.023220     -2.833780     0.100726   -0.094497   -0.081902
             5    1      -1.338530     -1.454140     -4.317600     0.080296   -0.047429   -0.047459
             6    1      -1.379640     -4.249960     -4.264950     0.034914   -0.068403   -0.068111
             7    1       1.426640     -4.222060     -4.226090     0.029126    0.002024    0.011373
             8    1       1.458520     -4.234380     -7.094580    -0.085507    0.090133    0.095675
             9    2      -0.142740     -2.652240     -2.656650     1.176693   -1.232489   -1.253214
            10    2       0.084090     -5.711410     -5.722550    -1.185576    1.165263    1.150935
 Energy
        -60.148957230000
 PlusStress:  xx          yy          zz          yz          xz          xy
        12.52123    12.30227    12.22666     1.58158    -1.80018    -1.67520
 Feature   EFS_by	VASP
END_CFG

BEGIN_CFG
 Size
    12
 Supercell
         3.035950     -2.325140      2.661130
        -3.223970     -2.557740     -2.659150
         4.628680      1.536320     -4.042210
 AtomData:  id type       cartes_x      cartes_y      cartes_z           fx          fy          fz
             1    1       2.685690     -2.470020      2.326660     0.255505    0.791482    0.192293
             2    1       1.372340     -3.435920     -1.326600     0.559187   -0.598072   -0.458225
             3    1       3.385690     -2.234980     -2.389550    -1.178947    0.865703   -0.888880
             4    1       4.023220     -1.019980     -4.203900     1.326019    0.068420   -1.483648
             5    1       1.673170     -1.027320     -1.459730    -1.062977    0.537171    1.567031
             6    1       1.133500     -1.280890      0.974800     0.378921    0.720191    0.318456
             7    1      -0.044320     -2.348980     -2.577000     0.066647   -0.207420   -0.899829
             8    1       1.802050     -1.024990     -3.770070     1.017390   -0.862829    1.164322
             9    1       4.956570     -0.919710     -1.066730     0.081257   -0.109947   -0.089991
            10    2       3.497300      0.391770     -2.331070    -1.283598   -1.862427   -0.175897
            11    2       1.178770     -3.664990      0.908100    -3.651164   -1.740927    2.606852
            12    2       2.936160     -2.329920      0.034440     3.491759    2.398655   -1.852483
 Energy
        -72.807126560000
 PlusStress:  xx          yy          zz          yz          xz          xy
        39.02253    32.41526    36.93913    -5.11191     2.97357    -6.82703
 Feature   EFS_by	VASP
END_CFG

BEGIN_CFG
 Size
    10
 Supercell
         0.000000      4.189910      0.000000
         4.562530      0.000000     -6.747810
        -2.751900      0.000000     -3.163290
 AtomData:  id type       cartes_x      cartes_y      cartes_z           fx          fy          fz
             1    0      -2.727200      0.000000     -3.158010    -0.000158    0.000033    0.000312
             2    1      -1.590930      2.094960     -4.146530    -0.275536   -0.000026    0.238901
             3    1       2.099630      0.000000     -7.357080     0.279662    0.000001   -0.243437
             4    1      -0.239570      0.000000     -2.543420    -0.280315    0.000000    0.243812
             5    1       3.450940      2.094960     -5.754040     0.274950   -0.000028   -0.238432
             6    2      -0.515030      0.000000     -5.082460     0.569683   -0.000020   -0.496371
             7    2       0.911340      2.094950     -6.323350    -0.230806    0.000044    0.200352
             8    2      -1.351260      2.094960     -1.576380    -0.000620   -0.000042    0.000237
             9    2       0.948690      2.094950     -3.577190     0.230335    0.000063   -0.200093
            10    2       2.375070      0.000000     -4.818060    -0.567195   -0.000024    0.494720
 Energy
        -68.737148100000
 PlusStress:  xx          yy          zz          yz          xz          xy
         1.45089     0.99774     1.34970    -0.00003    -0.36537    -0.00000
 Feature   EFS_by	VASP
END_CFG

BEGIN_CFG
 Size
    14
 Supercell
        -0.501354     -3.582860      0.056631
         3.698190     -0.491030      2.959990
        -8.471900      3.086470      4.940280
 AtomData:  id type       cartes_x      cartes_y      cartes_z           fx          fy          fz
             1    1      -0.131980     -3.322930      0.431970    -0.195957   -0.021443   -0.171139
             2    1       0.469250      0.275380      3.571340     0.118113    0.016421   -0.178858
             3    1      -4.383440      0.970380      3.885300     0.681266   -0.132443   -0.254163
             4    1      -6.630010      1.303570      5.194410     0.194836    0.013090    0.703558
             5    1       2.001850     -1.767120      3.471920    -0.280976    0.039444   -0.255482
             6    1      -1.507140     -1.264210      3.758500    -0.179762   -0.014134   -0.753462
             7    1      -6.546260     -0.512160      6.688540    -0.679041    0.078657    0.784334
             8    1      -1.597310      0.552470      2.266940     0.573627   -0.067675   -0.910537
             9    1      -3.771600     -0.928660      5.053700    -0.726790    0.138163    0.263219
            10    2      -6.134500     -0.608030      3.985810     0.126121    0.036944    1.344942
            11    2      -2.024430      0.650260      4.948470    -0.039734   -0.048313   -1.319807
            12    2      -4.480700      1.021630      6.549280    -1.389767    0.137818   -1.259699
            13    2       0.107690     -1.515920      1.938980     0.403401   -0.033837    0.846032
            14    2      -3.664650     -0.981150      2.399400     1.394662   -0.142693    1.161063
 Energy
        -91.303144400000
 PlusStress:  xx          yy          zz          yz          xz          xy
        18.34964    28.82002    24.14194    -0.82917     8.82522     1.77786
 Feature   EFS_by	VASP
END_CFG

BEGIN_CFG
 Size
    10
 Supercell
         2.379020      4.467270      1.070680
         3.822460      2.098800     -5.545440
        -1.879540      3.930360     -1.817060
 AtomData:  id type       cartes_x      cartes_y      cartes_z           fx          fy          fz
             1    1       1.814640      5.870860     -7.062900     0.006768   -0.012927    0.004720
             2    1       0.428730      6.319580     -2.552460    -0.174872    0.165903    0.162914
             3    1       2.402800      6.440420     -4.333000     0.059299    0.076195   -0.274386
             4    2       2.195270      8.258400     -2.500140    -1.012445   -0.395830    0.552611
             5    2       1.917290      3.999370     -5.165190     0.330253   -0.148025   -0.829705
             6    2       0.470430      4.133020     -0.627150    -0.190170   -0.201109    0.291922
             7    2       2.123770      6.231330     -0.550940    -0.380940    0.255808    0.777719
             8    2       2.266310      4.601400     -2.620460    -0.113832    0.234852   -0.105196
             9    2       1.806410      2.054670     -3.254070     1.120892    0.163841   -0.442595
            10    2       4.414340      4.333350     -4.273320     0.355046   -0.138708   -0.138002
 Energy
        -72.211250350000
 PlusStress:  xx          yy          zz          yz          xz          xy
         7.38722     7.95599     5.20690    -2.48466    -0.71454    -1.50756
 Feature   EFS_by	VASP
END_CFG

BEGIN_CFG
 Size
    12
 Supercell
         0.000000      0.000000      3.602630
         5.558920      5.080240      0.000000
        -2.222210      4.284240      0.000000
 AtomData:  id type       cartes_x      cartes_y      cartes_z           fx          fy          fz
             1    0      -0.131970      0.738430      0.000000    -0.000428    0.000440    0.000090
             2    0       2.647490      3.278550      1.801320     0.000405    0.000219   -0.000045
             3    1      -0.228110      5.897070      0.000000     1.497819    0.274726    0.000047
             4    1       3.300890      4.944260      0.000000    -1.497311   -0.274864    0.000048
             5    1      -1.243070      2.880550      0.000000    -0.000340    0.000066    0.000085
             6    1       1.035640      3.825160      0.000000     0.300385   -0.180553    0.000056
             7    1       2.037130      7.016170      0.000000    -0.300479    0.180702    0.000056
             8    1       0.351540      2.126160      1.801320     1.304498   -0.268241   -0.000068
             9    1       1.536380      5.420670      1.801320     0.000178    0.000420   -0.000056
            10    1       2.721240      8.715180      1.801320    -1.304048    0.267817   -0.000069
            11    2      -0.534420      4.183740      1.801320     0.963243    2.751405   -0.000077
            12    2       3.607190      6.657600      1.801320    -0.963924   -2.752135   -0.000067
 Energy
        -70.226412080000
 PlusStress:  xx          yy          zz          yz          xz          xy
        25.21084    27.62970    24.18375     0.00000     0.00000    -1.12989
 Feature   EFS_by	VASP
END_CFG

BEGIN_CFG
 Size
    12
 Supercell
         0.000002      2.906840     -2.906830
         2.906840     -0.000008      2.906830
         5.956640     -5.956670     -5.956670
 AtomData:  id type       cartes_x      cartes_y      cartes_z           fx          fy          fz
             1    1       0.117860     -0.102440     -0.102440    -0.389301    0.389126    0.389151
             2    1       1.419040      1.503210     -1.403620     0.369585   -0.369425   -0.369465
             3    1       1.504710     -1.489290     -1.489290    -0.000984    0.000403    0.000391
             4    1       4.497230     -1.574970     -1.574970    -0.369313    0.369990    0.370003
             5    1       2.891570     -2.876150     -2.876150     0.389885   -0.390330   -0.390339
             6    1       5.922340     -3.000100     -3.000100     0.346586   -0.346380   -0.346383
             7    1       5.950580     -3.028320     -5.935160    -0.346676    0.346853    0.346848
             8    2       2.947830     -0.025580     -0.025580    -0.018286    0.018441    0.018451
             9    2       2.968440     -0.046180     -2.953020     0.017115   -0.017127   -0.017111
            10    2       4.442640     -1.520390     -4.427220    -0.023515    0.023538    0.023500
            11    2       4.483040     -4.467620     -4.467630    -0.000216   -0.000125   -0.000056
            12    2       7.430280     -4.508030     -4.508030     0.025120   -0.024964   -0.024990
 Energy
        -80.685474560000
 PlusStress:  xx          yy          zz          yz          xz          xy
         5.46969     5.47026     5.46988     0.23019    -0.23038    -0.23011
 Feature   EFS_by	VASP
END_CFG

BEGIN_CFG
 Size
    10
 Supercell
         4.209150     -0.000256     -0.000804
        -0.000613      2.963870     -4.030040
         0.000525      7.224850      0.996768
 AtomData:  id type       cartes_x      cartes_y      cartes_z           fx          fy          fz
             1    0       0.050060      6.691270      0.697000     0.000023   -0.034426   -0.126811
             2    0       2.154360      2.997300      0.195370     0.000139    0.034538    0.126555
             3    1       0.049680      4.408940     -0.535070     0.000335   -0.119776    0.358859
             4    1       2.154490      7.964350     -0.240560     0.000171   -0.042296    0.776260
             5    1       0.049320      4.688090     -2.897110    -0.000135    0.043113   -0.777158
             6    1       2.154120      8.243500     -2.602590     0.000156    0.119423   -0.358230
             7    2       0.049430      2.059050     -1.407160    -0.000257   -0.151807   -0.655694
             8    2       2.154250      5.603130     -0.978080    -0.000280    0.346541   -0.904170
             9    2       0.049560      7.049300     -2.159580    -0.000103   -0.345162    0.905228
            10    2       2.153850      3.368530     -2.727270    -0.000049    0.149852    0.655161
 Energy
        -65.320108660000
 PlusStress:  xx          yy          zz          yz          xz          xy
         0.69143     0.26170     6.07554    -1.07108     0.00109     0.00046
 Feature   EFS_by	VASP
END_CFG

BEGIN_CFG
 Size
    10
 Supercell
         0.067525      2.987560     -0.067569
         2.594440      0.000039      2.594470
         6.696930      1.329030     -6.696930
 AtomData:  id type       cartes_x      cartes_y      cartes_z           fx          fy          fz
             1    0       0.167050      2.993200     -0.140020    -0.039004   -0.067048    0.038599
             2    0       4.001630      1.392090     -3.974580     0.508715   -0.045590   -0.509000
             3    1       1.308860      1.458200     -1.281810     1.102934    0.023674   -1.102898
             4    1       2.713260      2.921340     -2.686220     0.216001    0.063312   -0.215563
             5    1       5.426490      2.844190     -5.399450     0.185268    0.192298   -0.184813
             6    1       1.368440      1.487740      1.253060    -0.122647    0.130194    0.122962
             7    1       2.814970      2.951580     -0.193490    -1.189901    0.103757    1.190231
             8    1       5.437430      2.883300     -2.815940    -0.568217    0.127722    0.568277
             9    2       3.961750      1.440940     -1.340230    -0.184663   -0.244558    0.183984
            10    2       6.719690      1.371780     -4.098180     0.091514   -0.283761   -0.091778
 Energy
        -57.538616600000
 PlusStress:  xx          yy          zz          yz          xz          xy
        29.40523    31.26184    29.40487     0.96180     2.61230    -0.96140
 Feature   EFS_by	VASP
END_CFG

BEGIN_CFG
 Size
    6
 Supercell
         2.562150     -3.300160      0.305023
         2.434020     -1.341180     -6.057080
         1.392030      3.572570     -1.684270
 AtomData:  id type       cartes_x      cartes_y      cartes_z           fx          fy          fz
             1    0       2.467810     -1.351490     -6.051210     0.000022    0.000036    0.000107
             2    1       1.538360      0.980080     -1.868190    -0.010460   -0.015708   -0.038410
             3    1       3.227890     -0.544690     -3.712290     0.000213    0.000124   -0.000273
             4    1       4.917430     -2.069470     -5.556400     0.010189    0.015373    0.038561
             5    2       1.704630     -1.551870     -1.896350     0.210862    0.230358    0.666218
             6    2       3.359120     -3.110100     -3.843960    -0.210827   -0.230182   -0.666202
 Energy
        -38.930184880000
 PlusStress:  xx          yy          zz          yz          xz          xy
        -0.00382     0.16438    -0.13331    -0.08763    -0.04707    -0.02880
 Feature   EFS_by	VASP
END_CFG

BEGIN_CFG
 Size
    5
 Supercell
         0.019579      2.028030      1.837290
         5.369640      1.775980      0.013771
        -2.339900      2.078440     -4.322370
 AtomData:  id type       cartes_x      cartes_y      cartes_z           fx          fy          fz
             1    0       4.948100      1.973090     -0.191040    -0.068748   -0.495797    0.544576
             2    0       2.036940      1.610270      0.228740    -0.341465    0.226210   -0.222431
             3    0       3.109810      4.197950     -0.597760     0.341383   -0.226164    0.222378
             4    0       0.179070      1.807090     -2.015270     0.068676    0.495844   -0.544608
             5    1       1.403420      3.943330     -2.345690     0.000154   -0.000093    0.000084
 Energy
        -21.298161570000
 PlusStress:  xx          yy          zz          yz          xz          xy
         0.97581     1.89469     1.83867    -0.63484    -0.04182     0.02401
 Feature   EFS_by	VASP
END_CFG

BEGIN_CFG
 Size
    10
 Supercell
         0.020310      1.982130      1.949190
        -1.999710      4.041010     -6.070970
        -6.942370     -0.146134      0.220933
 AtomData:  id type       cartes_x      cartes_y      cartes_z           fx          fy          fz
             1    1      -6.894800     -0.119910      0.193770     0.105398    0.089100   -0.091302
             2    1      -3.545610      1.991200     -1.987900    -0.093504   -0.495791    0.505418
             3    1      -5.449840      5.871660     -3.931570    -0.103153    0.258173   -0.261466
             4    2      -5.116850      1.938090      0.064980     0.115780   -1.057595    1.072908
             5    2      -1.954450      3.930860     -1.994400    -0.356435    0.266523   -0.267446
             6    2      -7.123590      3.839050     -3.829710    -0.226481    1.299887   -1.318786
             7    2      -1.835340      2.025260     -0.057840     0.056208   -1.042320    1.058380
             8    2      -6.997640      1.951350     -1.911420     0.061272   -0.627981    0.638953
             9    2      -5.189430      3.872660     -1.901520     0.317021    0.241871   -0.249235
            10    2      -3.627120      4.019000     -4.049120     0.123893    1.068133   -1.087424
 Energy
        -71.926094980000
 PlusStress:  xx          yy          zz          yz          xz          xy
         5.43722    10.76701    10.74222     0.60491     0.17080    -0.11164
 Feature   EFS_by	VASP
END_CFG

BEGIN_CFG
 Size
    14
 Supercell
        -3.729380      2.356050     -0.128965
         0.067739     -4.173050      3.963120
         2.373710      4.047110      3.877680
 AtomData:  id type       cartes_x      cartes_y      cartes_z           fx          fy          fz
             1    1       1.852470      3.823140      3.850310    -0.208513   -0.798549   -0.555335
             2    1      -0.550640     -0.359300      3.908960     0.235233    0.615511    0.106468
             3    1      -0.769740      4.013270      3.772900     0.327008   -0.447131    0.177898
             4    1      -3.006430     -0.084080      3.841530    -0.662044   -0.682691   -0.515068
             5    1       0.551940      1.710180      3.923150     1.000160    0.014750   -0.136615
             6    1      -1.762860     -2.281670      3.923660     0.435954   -0.786111   -0.992741
             7    1      -1.920390      3.249540      1.806320    -0.127888    0.718315    0.478996
             8    1       1.826010      0.918420      5.853320    -0.286490    0.471789    0.106938
             9    1      -0.644500      1.025220      1.911180     1.038257    1.369125    0.021217
            10    1      -0.631650      1.124890      5.800300     0.005349    0.172448    0.242387
            11    1      -3.087660      1.294440      1.783670    -0.537411   -0.282331    0.657535
            12    2      -1.836910      1.858470      3.769260     1.069228    1.170574   -0.482578
            13    2       0.576560     -1.180520      5.930370    -0.201850    1.294632    1.688663
            14    2      -1.755430     -0.759390      1.933210    -2.086995   -2.830331   -0.797763
 Energy
        -84.234457750000
 PlusStress:  xx          yy          zz          yz          xz          xy
        33.83096    40.12484    40.78096     0.40491    -4.36269    10.85119
 Feature   EFS_by	VASP
END_CFG

BEGIN_CFG
 Size
    8
 Supercell
         3.771760      0.000218     -0.001238
        -0.001535      2.280780     -4.277930
         0.000662      4.019500      2.710380
 AtomData:  id type       cartes_x      cartes_y      cartes_z           fx          fy          fz
             1    0       0.028730      2.138230     -4.010560     0.000258   -0.000658   -0.001106
             2    1       1.915970      1.334530     -0.100730     0.000019   -1.711379    0.426264
             3    1       0.029840      3.007630     -0.516410    -0.000031   -0.000334    0.000465
             4    1       0.030170      5.017320      0.838790    -0.000016   -0.000123    0.000101
             5    1       0.029070      4.148010     -2.655370    -0.000005    0.000121   -0.000377
             6    1       1.915490      4.680880     -0.933330    -0.000319    1.711686   -0.425674
             7    2       1.916160      3.358340      0.892240     0.000881    0.681343    2.737660
             8    2       1.915270      2.657070     -1.926330    -0.000787   -0.680657   -2.737333
 Energy
        -48.749935490000
 PlusStress:  xx          yy          zz          yz          xz          xy
        13.88804    16.33254    17.81869     0.39565     0.00131    -0.00016
 Feature   EFS_by	VASP
END_CFG

BEGIN_CFG
 Size
    4
 Supercell
        -1.393000      1.393030      1.970020
         1.393000     -1.393030      1.970020
         5.814170      5.814370      0.000000
 AtomData:  id type       cartes_x      cartes_y      cartes_z           fx          fy          fz
             1    0       4.033360      6.789790      1.970020     0.722606    0.722656    0.000000
             2    0       1.484010      1.454240      1.970020    -0.000274    0.000001   -0.000000
             3    0       1.962680      4.719120      1.970020    -0.722869   -0.722675   -0.000000
             4    1       4.391060      4.361420      1.970020     0.000536    0.000018   -0.000000
 Energy
        -17.484452990000
 PlusStress:  xx          yy          zz          yz          xz          xy
        -1.06339    -1.06463     0.39538    -0.00000     0.00000    -1.45963
 Feature   EFS_by	VASP
END_CFG

BEGIN_CFG
 Size
    8
 Supercell
         3.065840     -3.064430      0.093166
        -3.065850     -3.064420      0.093179
        -0.000018     -3.264720     -6.494310
 AtomData:  id type       cartes_x      cartes_y      cartes_z           fx          fy          fz
             1    0      -3.038850     -6.329140     -6.401130     0.000133    0.000018    0.000001
             2    1       0.027010     -3.064420      0.093170    -0.001241   -0.000000    0.000009
             3    2       1.559930     -4.642720     -1.375850     0.000464   -0.021734   -0.713605
             4    2       0.027000     -6.228560     -3.092850    -0.000085    0.005109    0.150820
             5    2       1.559920     -4.750850     -4.932110     0.000500    0.021708    0.713554
             6    2      -1.505910     -4.642720     -1.375850     0.000153   -0.021734   -0.713520
             7    2       0.027000     -3.165010     -3.215120    -0.000077   -0.005079   -0.150752
             8    2      -1.505920     -4.750840     -4.932110     0.000154    0.021713    0.713493
 Energy
        -57.013493580000
 PlusStress:  xx          yy          zz          yz          xz          xy
         2.83559     2.83589     5.69904     0.08342     0.00002    -0.00023
 Feature   EFS_by	VASP
END_CFG

BEGIN_CFG
 Size
    12
 Supercell
         3.122930     -0.000325     -0.000080
         0.000488      3.739640      3.932420
        -0.000213     -3.808670      7.326810
 AtomData:  id type       cartes_x      cartes_y      cartes_z           fx          fy          fz
             1    0       0.032140     -3.495120      7.341760     0.000145    0.000383   -0.000426
             2    0       0.032450      0.403490      3.662860     0.000140    0.078853   -0.057378
             3    0       0.032520      0.154610      7.626300     0.000126   -0.079291    0.057159
             4    1       1.593800     -1.650750      7.399670    -0.000043   -0.067447    0.229268
             5    1       1.594110      2.208500      3.889350    -0.000004    0.067553   -0.228950
             6    1       1.593710     -1.590910      3.678320    -0.000092   -0.000194   -0.000419
             7    1       1.593860      0.272570      1.853370    -0.000015    0.244244   -0.052349
             8    1       1.593950      0.278880      5.644550    -0.000020    0.000412   -0.000100
             9    1       1.594050      0.285150      9.435660    -0.000050   -0.244386    0.052532
            10    1       0.032380     -1.625320      9.307930    -0.000047    0.000044    0.000306
            11    2       0.032680      2.094850      5.799220    -0.000005    0.873223   -0.875772
            12    2       0.032290     -1.536770      5.489900    -0.000134   -0.873393    0.876129
 Energy
        -69.409122960000
 PlusStress:  xx          yy          zz          yz          xz          xy
        20.62120    21.20955    21.75085    -0.57334     0.00005     0.00006
 Feature   EFS_by	VASP
END_CFG

BEGIN_CFG
 Size
    9
 Supercell
        -1.147900      2.589740      1.413950
         4.522190      2.736000      1.748930
         4.279020      6.522060     -2.221000
 AtomData:  id type       cartes_x      cartes_y      cartes_z           fx          fy          fz
             1    1      -0.987690      2.620720      1.436770    -0.709554   -0.398793   -0.354086
             2    1       0.676040      3.812180      0.326290     0.097227    0.779765   -0.788122
             3    1       6.968330      7.947330      0.668870    -0.018130   -0.009169   -0.060774
             4    1       3.499170      6.932400      0.011900     0.709186    0.398686    0.354494
             5    1       5.492250      8.274110     -1.106220     0.018414    0.009419    0.060934
             6    1       1.835440      5.740960      1.122380    -0.096927   -0.779431    0.787886
             7    1       4.090790      4.849700      0.891830     0.000015    0.000052   -0.000455
             8    2       5.681460      6.032820     -0.188090     2.121736    1.287519   -1.104333
             9    2       2.500120      3.666570      1.971760    -2.121967   -1.288049    1.104456
 Energy
        -54.192064260000
 PlusStress:  xx          yy          zz          yz          xz          xy
        21.96685    31.66823    23.78208    -0.30360     1.40803     1.64257
 Feature   EFS_by	VASP
END_CFG

BEGIN_CFG
 Size
    3
 Supercell
        -3.063730      3.063730      0.000000
         0.000000     -3.063730     -3.063730
        -1.641510     -1.641510      1.641510
 AtomData:  id type       cartes_x      cartes_y      cartes_z           fx          fy          fz
             1    0      -1.594120     -1.594120      1.594120     0.451759    0.451760   -0.451764
             2    0      -3.184210     -0.120480      0.120480    -0.451647   -0.451653    0.451656
             3    2      -1.568410     -1.568410     -1.495320    -0.000113   -0.000107    0.000109
 Energy
        -15.936449380000
 PlusStress:  xx          yy          zz          yz          xz          xy