BEGIN_CFG
 Size
    12
 Supercell
         0.000000      2.310780      2.310780
         0.000853      5.606590     -5.606590
        -6.886840      0.000544     -0.000544
 AtomData:  id type       cartes_x      cartes_y      cartes_z           fx          fy          fz
             1    1      -0.972620      5.232250     -5.232250     0.132554    0.255550   -0.255572
             2    1      -4.134750      2.464560     -0.153790    -0.131973   -0.255815    0.255825
             3    1      -0.691160      3.584320     -1.273540    -0.131945    0.255895   -0.255904
             4    1      -4.416210      4.112500     -4.112500     0.132089   -0.255618    0.255613
             5    0      -2.670350      2.325250     -2.325250     0.146042    0.268734   -0.268743
             6    0      -0.200190      3.609980     -3.609980     0.311994   -0.178678    0.178679
             7    0      -5.880310      6.284190     -3.973410    -0.145830    0.269175   -0.269198
             8    0      -3.644140      2.438830      2.182720     0.312039    0.178826   -0.178805
             9    0      -1.464080      1.962170      0.348600    -0.312446   -0.178205    0.178215
            10    0      -6.113890      1.413170     -1.413170     0.145936   -0.268854    0.268843
            11    0      -4.907180      4.086840     -1.776060    -0.312309    0.178229   -0.178221
            12    0      -2.437020      5.371560     -3.060790    -0.146150   -0.269240    0.269266
 Energy
        -86.715458570000
 PlusStress:  xx          yy          zz          yz          xz          xy
         0.00000     0.00000     0.00000     0.00000     0.00000     0.00000
 Feature   ID	2
 Feature   MV_grade	2.260873
 Feature   rank	2
END_CFG

BEGIN_CFG
 Size
    12
 Supercell
         0.000000      2.310780      2.310780
         0.000853      5.606590     -5.606590
        -6.886840      0.000544     -0.000544
 AtomData:  id type       cartes_x      cartes_y      cartes_z           fx          fy          fz
             1    1      -0.972620      5.232250     -5.232250    -0.010411    0.029780   -0.029786
             2    1      -4.134750      2.464560     -0.153790     0.010414   -0.029777    0.029782
             3    1      -0.691160      3.584320     -1.273540     0.010423    0.029780   -0.029780
             4    1      -4.416210      4.112500     -4.112500    -0.010420   -0.029784    0.029781
             5    0      -2.670350      2.325250     -2.325250    -0.072456    0.035569   -0.035572
             6    0      -0.200190      3.609980     -3.609980     0.085560    0.038286   -0.038286
             7    0      -5.880310      6.284190     -3.973410     0.072483    0.035552   -0.035551
             8    0      -3.644140      2.438830      2.182720     0.085552   -0.038307    0.038307
             9    0      -1.464080      1.962170      0.348600    -0.085548    0.038304   -0.038302
            10    0      -6.113890      1.413170     -1.413170    -0.072498   -0.035550    0.035548
            11    0      -4.907180      4.086840     -1.776060    -0.085563   -0.038288    0.038288
            12    0      -2.437020      5.371560     -3.060790     0.072463   -0.035566    0.035571
 Energy
        -57.193703026864
 PlusStress:  xx          yy          zz          yz          xz          xy
         1.07763     2.38735     2.38735     0.17362    -0.00010     0.00010
 Feature   ID	2
 Feature   MV_grade	2.260873
 Feature   rank	2
END_CFG

BEGIN_CFG
 Size
    12
 Supercell
         0.000000      2.321407      2.321407
         0.000857      5.628877     -5.628877
        -6.900167      0.000545     -0.000545
 AtomData:  id type       cartes_x      cartes_y      cartes_z           fx          fy          fz
             1    1      -0.975543      7.577446     -2.934633    -0.010411    0.029780   -0.029786
             2    1      -4.141707      2.472087     -0.150690     0.010414   -0.029777    0.029782
             3    1      -0.691452      3.602279     -1.280872     0.010423    0.029780   -0.029780
             4    1      -4.425798      6.447264     -1.804450    -0.010420   -0.029784    0.029781
             5    0      -2.682776      4.659471     -0.016657    -0.072456    0.035569   -0.035572
             6    0      -0.192004      3.628174     -3.628174     0.085560    0.038286   -0.038286
             7    0      -5.884425      6.313459     -3.992053     0.072483    0.035552   -0.035551
             8    0      -3.642620      2.446119      2.196684     0.085552   -0.038307    0.038307
             9    0      -1.475484      1.974536      0.346861    -0.085548    0.038304   -0.038302
            10    0      -6.132984      3.736624      0.906189    -0.072498   -0.035550    0.035548
            11    0      -4.925248      4.099961     -1.778555    -0.085563   -0.038288    0.038288
            12    0      -2.434474      5.390062     -3.068665     0.072463   -0.035566    0.035571
 Energy
        -57.193703026864
 PlusStress:  xx          yy          zz          yz          xz          xy
         1.07763     2.38735     2.38735     0.17362    -0.00010     0.00010
 Feature   ID	2
 Feature   MV_grade	2.119056
 Feature   rank	2
END_CFG

BEGIN_CFG
 Size
    12
 Supercell
         0.000000      2.342660      2.342660
         0.000864      5.673452     -5.673452
        -6.926820      0.000546     -0.000546
 AtomData:  id type       cartes_x      cartes_y      cartes_z           fx          fy          fz
             1    1      -0.981402      7.646348     -2.961029    -0.002889    0.027933   -0.027937
             2    1      -4.155610      2.487071     -0.144419     0.002891   -0.027931    0.027935
             3    1      -0.692025      3.638267     -1.295607     0.002900    0.027935   -0.027936
             4    1      -4.444987      6.495160     -1.809840    -0.002898   -0.027938    0.027936
             5    0      -2.707713      4.706436     -0.021117    -0.062893    0.025321   -0.025323
             6    0      -0.175531      3.664654     -3.664654     0.079163    0.029444   -0.029444
             7    0      -5.892571      6.372083     -4.029423     0.062910    0.025309   -0.025309
             8    0      -3.639481      2.460606      2.224704     0.079156   -0.029459    0.029458
             9    0      -1.498392      1.999359      0.343292    -0.079154    0.029457   -0.029455
            10    0      -6.171257      3.761887      0.923432    -0.062918   -0.025308    0.025306
            11    0      -4.961483      4.126113     -1.783453    -0.079164   -0.029445    0.029445
            12    0      -2.429298      5.426982     -3.084330     0.062896   -0.025319    0.025323
 Energy
        -57.245966724185
 PlusStress:  xx          yy          zz          yz          xz          xy
         0.35376     1.64420     1.64420     0.21817    -0.00009     0.00010
 Feature   ID	2
 Feature   MV_grade	2.039665
 Feature   rank	2
END_CFG

BEGIN_CFG
 Size
    12
 Supercell
         0.000000      2.353287      2.353287
         0.000867      5.695739     -5.695739
        -6.940147      0.000547     -0.000547
 AtomData:  id type       cartes_x      cartes_y      cartes_z           fx          fy          fz
             1    1      -0.984338      7.680834     -2.974263     0.000771    0.026862   -0.026866
             2    1      -4.162555      2.494527     -0.141248    -0.000769   -0.026860    0.026864
             3    1      -0.692305      3.656296     -1.303010    -0.000760    0.026865   -0.026866
             4    1      -4.454588      6.519072     -1.812500     0.000762   -0.026867    0.026866
             5    0      -2.720223      4.729962     -0.023389    -0.057974    0.020157   -0.020159
             6    0      -0.167246      3.682939     -3.682939     0.075739    0.025012   -0.025012
             7    0      -5.896601      6.401437     -4.048151     0.057986    0.020147   -0.020148
             8    0      -3.637861      2.467803      2.238759     0.075733   -0.025024    0.025024
             9    0      -1.509895      2.011816      0.341462    -0.075732    0.025023   -0.025021
            10    0      -6.190435      3.774476      0.932096    -0.057991   -0.020147    0.020145
            11    0      -4.979650      4.139143     -1.785856    -0.075739   -0.025013    0.025013
            12    0      -2.426668      5.445399     -3.092121     0.057975   -0.020155    0.020159
 Energy
        -57.265412189494
 PlusStress:  xx          yy          zz          yz          xz          xy
        -0.00686     1.27625     1.27625     0.24606    -0.00009     0.00009
 Feature   ID	2
 Feature   MV_grade	2.107743
 Feature   rank	2
END_CFG

BEGIN_CFG
 Size
    12
 Supercell
         0.000000      2.370184      2.370184
         0.000872      5.727839     -5.727839
        -6.952236      0.000548     -0.000548
 AtomData:  id type       cartes_x      cartes_y      cartes_z           fx          fy          fz
             1    1      -0.986926      7.733698     -2.993334     0.004356    0.025707   -0.025711
             2    1      -4.168928      2.504459     -0.134282    -0.004354   -0.025706    0.025709
             3    1      -0.692630      3.684662     -1.314478    -0.004346    0.025711   -0.025712
             4    1      -4.463223      6.553501     -1.813135     0.004347   -0.025713    0.025712
             5    0      -2.738364      4.765944     -0.025577    -0.052981    0.014979   -0.014980
             6    0      -0.150864      3.710220     -3.710220     0.072179    0.020581   -0.020581
             7    0      -5.893462      6.445018     -4.074834     0.052988    0.014971   -0.014972
             8    0      -3.627529      2.478817      2.261540     0.072174   -0.020590    0.020590
             9    0      -1.529194      2.031498      0.338677    -0.072174    0.020590   -0.020588
            10    0      -6.214627      3.793692      0.946674    -0.052990   -0.014972    0.014970
            11    0      -5.004993      4.157761     -1.787577    -0.072178   -0.020582    0.020581
            12    0      -2.417488      5.472213     -3.102037     0.052980   -0.014978    0.014981
 Energy
        -57.280454255444
 PlusStress:  xx          yy          zz          yz          xz          xy
        -0.36612     0.91065     0.91066     0.27731    -0.00009     0.00009
 Feature   ID	2
 Feature   MV_grade	2.221929
 Feature   rank	2
END_CFG

BEGIN_CFG
 Size
    12
 Supercell
         0.000000      2.378632      2.378632
         0.000875      5.743888     -5.743888
        -6.958281      0.000548     -0.000548
 AtomData:  id type       cartes_x      cartes_y      cartes_z           fx          fy          fz
             1    1      -0.988221      7.760155     -3.002894     0.011362    0.023294   -0.023296
             2    1      -4.172113      2.509400     -0.130775    -0.011361   -0.023293    0.023295
             3    1      -0.692792      3.698870     -1.320238    -0.011354    0.023300   -0.023300
             4    1      -4.467542      6.570691     -1.813428     0.011354   -0.023301    0.023300
             5    0      -2.747452      4.783958     -0.026695    -0.045124    0.007840   -0.007841
             6    0      -0.142651      3.723888     -3.723888     0.065067    0.014054   -0.014054
             7    0      -5.891875      6.466832     -4.088200     0.045126    0.007835   -0.007836
             8    0      -3.622341      2.484296      2.272958     0.065064   -0.014059    0.014060
             9    0      -1.538865      2.041367      0.337257    -0.065065    0.014060   -0.014059
            10    0      -6.226741      3.803276      0.953987    -0.045124   -0.007836    0.007835
            11    0      -5.017686      4.167042     -1.788409    -0.065065   -0.014055    0.014054
            12    0      -2.412881      5.485596     -3.106971     0.045122   -0.007839    0.007841
 Energy
        -57.297918857023
 PlusStress:  xx          yy          zz          yz          xz          xy
        -0.85160     0.39011     0.39011     0.32518    -0.00008     0.00008
 Feature   ID	2
 Feature   MV_grade	2.285798
 Feature   rank	2
END_CFG

BEGIN_CFG
 Size
    12
 Supercell
         0.000000      2.397527      2.397527
         0.000880      5.772147     -5.772147
        -6.952923      0.000547     -0.000547
 AtomData:  id type       cartes_x      cartes_y      cartes_z           fx          fy          fz
             1    1      -0.986276      7.814254     -3.019205     0.014760    0.022037   -0.022038
             2    1      -4.170078      2.516611     -0.119089    -0.014759   -0.022036    0.022038
             3    1      -0.693432      3.729394     -1.331867    -0.014752    0.022043   -0.022043
             4    1      -4.462921      6.601476     -1.806424     0.014752   -0.022044    0.022043
             5    0      -2.763643      4.820810     -0.025757    -0.041157    0.004285   -0.004286
             6    0      -0.118486      3.750010     -3.750009     0.061372    0.010798   -0.010798
             7    0      -5.869019      6.508362     -4.110835     0.041155    0.004283   -0.004284
             8    0      -3.595502      2.495903      2.299141     0.061369   -0.010801    0.010802
             9    0      -1.561728      2.062810      0.334709    -0.061371    0.010803   -0.010801
            10    0      -6.240260      3.823055      0.971997    -0.041153   -0.004284    0.004283
            11    0      -5.037871      4.183335     -1.785807    -0.061369   -0.010798    0.010798
            12    0      -2.392708      5.510055     -3.112534     0.041154   -0.004285    0.004287
 Energy
        -57.303234252647
 PlusStress:  xx          yy          zz          yz          xz          xy
        -1.09244     0.13146     0.13147     0.35131    -0.00008     0.00008
 Feature   ID	2
 Feature   MV_grade	2.414484
 Feature   rank	2
END_CFG

BEGIN_CFG
 Size
    12
 Supercell
         0.000000      2.419113      2.419113
         0.000884      5.792822     -5.792822
        -6.919441      0.000543     -0.000543
 AtomData:  id type       cartes_x      cartes_y      cartes_z           fx          fy          fz
             1    1      -0.976221      7.868034     -3.029815     0.024412    0.018389   -0.018389
             2    1      -4.155291      2.519329     -0.100221    -0.024412   -0.018388    0.018389
             3    1      -0.695381      3.762045     -1.342933    -0.024407    0.018395   -0.018396
             4    1      -4.436131      6.625320     -1.787097     0.024405   -0.018396    0.018396
             5    0      -2.775880      4.857742     -0.019519    -0.032988   -0.001343    0.001342
             6    0      -0.083308      3.772919     -3.772918     0.050533    0.004494   -0.004494
             7    0      -5.815197      6.544833     -4.125721     0.032983   -0.001344    0.001342
             8    0      -3.543588      2.508358      2.329858     0.050531   -0.004494    0.004496
             9    0      -1.588806      2.086178      0.332928    -0.050534    0.004497   -0.004496
            10    0      -6.235760      3.843076      0.995147    -0.032977    0.001342   -0.001342
            11    0      -5.048208      4.195337     -1.776224    -0.050529   -0.004494    0.004494
            12    0      -2.355632      5.529621     -3.110512     0.032983    0.001343   -0.001342
 Energy
        -57.314263842057
 PlusStress:  xx          yy          zz          yz          xz          xy
        -1.45203    -0.32295    -0.32294     0.39451    -0.00007     0.00007
 Feature   ID	2
 Feature   MV_grade	2.530064
 Feature   rank	2
END_CFG

BEGIN_CFG
 Size
    12
 Supercell
         0.000000      2.434771      2.434772
         0.000887      5.807821     -5.807821
        -6.895152      0.000540     -0.000540
 AtomData:  id type       cartes_x      cartes_y      cartes_z           fx          fy          fz
             1    1      -0.968960      7.907104     -3.037569     0.037583    0.012854   -0.012852
             2    1      -4.144532      2.521243     -0.086475    -0.037583   -0.012854    0.012853
             3    1      -0.696763      3.785789     -1.351018    -0.037579    0.012860   -0.012861
             4    1      -4.416729      6.642560     -1.773020     0.037578   -0.012860    0.012861
             5    0      -2.784601      4.884563     -0.015023    -0.024865   -0.004797    0.004797
             6    0      -0.057999      3.789580     -3.789580     0.034370   -0.001589    0.001589
             7    0      -5.776309      6.571321     -4.136550     0.024859   -0.004798    0.004796
             8    0      -3.506137      2.517350      2.352183     0.034369    0.001590   -0.001588
             9    0      -1.608240      2.103171      0.331593    -0.034373   -0.001587    0.001588
            10    0      -6.232340      3.857570      1.011970    -0.024853    0.004796   -0.004796
            11    0      -5.055497      4.204001     -1.769230    -0.034367    0.001589   -0.001589
            12    0      -2.328891      5.543784     -3.109016     0.024861    0.004797   -0.004797
 Energy
        -57.328727878219
 PlusStress:  xx          yy          zz          yz          xz          xy
        -1.59865    -0.66043    -0.66043     0.41520    -0.00005     0.00005
 Feature   ID	2
 Feature   MV_grade	2.617146
 Feature   rank	2
END_CFG

BEGIN_CFG
 Size
    12
 Supercell
         0.000000      2.444407      2.444407
         0.000887      5.806684     -5.806684
        -6.856869      0.000537     -0.000537
 AtomData:  id type       cartes_x      cartes_y      cartes_z           fx          fy          fz
             1    1      -0.956994      7.923569     -3.034763     0.046958    0.008441   -0.008438
             2    1      -4.128101      2.517903     -0.073499    -0.046958   -0.008442    0.008440
             3    1      -0.699471      3.798007     -1.353601    -0.046957    0.008448   -0.008449
             4    1      -4.385624      6.643467     -1.754655     0.046955   -0.008447    0.008449
             5    0      -2.784483      4.896453     -0.007642    -0.018680   -0.007533    0.007533
             6    0      -0.036763      3.793383     -3.793383     0.021980   -0.006151    0.006151
             7    0      -5.728888      6.577821     -4.133415     0.018674   -0.007534    0.007532
             8    0      -3.465762      2.522421      2.366384     0.021980    0.006153   -0.006151
             9    0      -1.620220      2.112363      0.332038    -0.021984   -0.006150    0.006150
            10    0      -6.213081      3.864190      1.024621    -0.018667    0.007532   -0.007531
            11    0      -5.048335      4.203686     -1.759279    -0.021977    0.006151   -0.006152
            12    0      -2.300613      5.545019     -3.100615     0.018677    0.007533   -0.007533
 Energy
        -57.334524552037
 PlusStress:  xx          yy          zz          yz          xz          xy
        -1.69760    -0.90300    -0.90300     0.42902    -0.00004     0.00004
 Feature   ID	2
 Feature   MV_grade	2.625707
 Feature   rank	2
END_CFG

BEGIN_CFG
 Size
    12
 Supercell
         0.000000      2.449225      2.449225
         0.000887      5.806116     -5.806116
        -6.837728      0.000535     -0.000535
 AtomData:  id type       cartes_x      cartes_y      cartes_z           fx          fy          fz
             1    1      -0.951038      7.931801     -3.033358     0.054031    0.004512   -0.004508
             2    1      -4.119858      2.516234     -0.067011    -0.054032   -0.004513    0.004510
             3    1      -0.700798      3.804114     -1.354891    -0.054031    0.004519   -0.004519
             4    1      -4.370099      6.643921     -1.745474     0.054030   -0.004518    0.004519
             5    0      -2.784359      4.902397     -0.003951    -0.016062   -0.007323    0.007323
             6    0      -0.026232      3.795284     -3.795284     0.011797   -0.008283    0.008282
             7    0      -5.705242      6.581071     -4.131847     0.016058   -0.007325    0.007323
             8    0      -3.445661      2.524957      2.373484     0.011797    0.008284   -0.008282
             9    0      -1.626122      2.116957      0.332262    -0.011801   -0.008282    0.008282
            10    0      -6.203387      3.867501      1.030946    -0.016052    0.007323   -0.007323
            11    0      -5.044667      4.203529     -1.754304    -0.011794    0.008282   -0.008283
            12    0      -2.286538      5.545637     -3.096414     0.016059    0.007323   -0.007324
 Energy
        -57.345691367208
 PlusStress:  xx          yy          zz          yz          xz          xy
        -1.53498    -0.89444    -0.89444     0.40579    -0.00003     0.00003
 Feature   ID	2
 Feature   MV_grade	2.628875
 Feature   rank	2
END_CFG

BEGIN_CFG
 Size
    12
 Supercell
         0.000000      2.451634      2.451634
         0.000887      5.805832     -5.805832
        -6.828157      0.000534     -0.000534
 AtomData:  id type       cartes_x      cartes_y      cartes_z           fx          fy          fz
             1    1      -0.948067      7.935916     -3.032656     0.057571    0.002404   -0.002400
             2    1      -4.115730      2.515399     -0.063768    -0.057572   -0.002405    0.002403
             3    1      -0.701454      3.807168     -1.355535    -0.057572    0.002411   -0.002412
             4    1      -4.362344      6.644149     -1.740883     0.057571   -0.002410    0.002411
             5    0      -2.784281      4.905369     -0.002105    -0.014652   -0.007382    0.007383
             6    0      -0.020989      3.796235     -3.796235     0.006598   -0.009413    0.009413
             7    0      -5.693435      6.582695     -4.131063     0.014648   -0.007385    0.007383
             8    0      -3.435633      2.526225      2.377034     0.006600    0.009414   -0.009413
             9    0      -1.629052      2.119255      0.332374    -0.006602   -0.009412    0.009412
            10    0      -6.198524      3.869156      1.034108    -0.014643    0.007383   -0.007383
            11    0      -5.042811      4.203451     -1.751817    -0.006597    0.009413   -0.009413
            12    0      -2.279517      5.545946     -3.094314     0.014650    0.007382   -0.007383
 Energy
        -57.350480882830
 PlusStress:  xx          yy          zz          yz          xz          xy
        -1.45228    -0.88914    -0.88914     0.39323    -0.00002     0.00002
 Feature   ID	2
 Feature   MV_grade	2.630247
 Feature   rank	2
END_CFG

BEGIN_CFG
 Size
    12
 Supercell
         0.000000      2.452839      2.452839
         0.000888      5.805689     -5.805689
        -6.823371      0.000533     -0.000533
 AtomData:  id type       cartes_x      cartes_y      cartes_z           fx          fy          fz
             1    1      -0.946583      7.937974     -3.032305     0.059341    0.001316   -0.001312
             2    1      -4.113664      2.514982     -0.062146    -0.059342   -0.001317    0.001314
             3    1      -0.701780      3.808695     -1.355858    -0.059342    0.001323   -0.001323
             4    1      -4.358468      6.644262     -1.738588     0.059341   -0.001321    0.001323
             5    0      -2.784238      4.906856     -0.001182    -0.013923   -0.007453    0.007454
             6    0      -0.018373      3.796710     -3.796710     0.003974   -0.009993    0.009992
             7    0      -5.687535      6.583508     -4.130671     0.013919   -0.007456    0.007454
             8    0      -3.430624      2.526859      2.378809     0.003975    0.009994   -0.009992
             9    0      -1.630511      2.120403      0.332429    -0.003977   -0.009992    0.009992
            10    0      -6.196089      3.869984      1.035690    -0.013914    0.007454   -0.007454
            11    0      -5.041877      4.203412     -1.750574    -0.003972    0.009992   -0.009993
            12    0      -2.276011      5.546101     -3.093264     0.013921    0.007453   -0.007454
 Energy
        -57.352671779155
 PlusStress:  xx          yy          zz          yz          xz          xy
        -1.41063    -0.88624    -0.88624     0.38672    -0.00002     0.00002
 Feature   ID	2
 Feature   MV_grade	2.630889
 Feature   rank	2
END_CFG

BEGIN_CFG
 Size
    12
 Supercell
         0.000000      2.453441      2.453441
         0.000888      5.805618     -5.805618
        -6.820979      0.000533     -0.000533
 AtomData:  id type       cartes_x      cartes_y      cartes_z           fx          fy          fz
             1    1      -0.945842      7.939003     -3.032129     0.060225    0.000763   -0.000759
             2    1      -4.112631      2.514774     -0.061336    -0.060227   -0.000764    0.000761
             3    1      -0.701943      3.809458     -1.356019    -0.060227    0.000770   -0.000770
             4    1      -4.356530      6.644319     -1.737441     0.060226   -0.000768    0.000770
             5    0      -2.784216      4.907599     -0.000721    -0.013552   -0.007499    0.007499
             6    0      -0.017066      3.796948     -3.796947     0.002655   -0.010287    0.010286
             7    0      -5.684586      6.583914     -4.130475     0.013549   -0.007501    0.007500
             8    0      -3.428121      2.527176      2.379696     0.002656    0.010288   -0.010286
             9    0      -1.631239      2.120978      0.332457    -0.002659   -0.010286    0.010285
            10    0      -6.194870      3.870398      1.036480    -0.013544    0.007500   -0.007500
            11    0      -5.041409      4.203392     -1.749952    -0.002653    0.010286   -0.010287
            12    0      -2.274258      5.546178     -3.092739     0.013551    0.007498   -0.007500
 Energy
        -57.353715619218
 PlusStress:  xx          yy          zz          yz          xz          xy
        -1.38974    -0.88474    -0.88473     0.38341    -0.00002     0.00002
 Feature   ID	2
 Feature   MV_grade	2.631200
 Feature   rank	2
END_CFG

BEGIN_CFG
 Size
    12
 Supercell
         0.000000      2.453742      2.453742
         0.000888      5.805583     -5.805583
        -6.819782      0.000533     -0.000533
 AtomData:  id type       cartes_x      cartes_y      cartes_z           fx          fy          fz
             1    1      -0.945471      7.939517     -3.032041     0.060668    0.000484   -0.000480
             2    1      -4.112114      2.514670     -0.060930    -0.060669   -0.000486    0.000483
             3    1      -0.702025      3.809840     -1.356099    -0.060669    0.000491   -0.000492
             4    1      -4.355562      6.644348     -1.736867     0.060668   -0.000490    0.000491
             5    0      -2.784204      4.907970     -0.000490    -0.013365   -0.007524    0.007525
             6    0      -0.016413      3.797066     -3.797066     0.001994   -0.010434    0.010434
             7    0      -5.683112      6.584117     -4.130377     0.013362   -0.007527    0.007525
             8    0      -3.426870      2.527335      2.380140     0.001995    0.010435   -0.010433
             9    0      -1.631603      2.121265      0.332471    -0.001998   -0.010433    0.010433
            10    0      -6.194260      3.870605      1.036876    -0.013357    0.007526   -0.007525
            11    0      -5.041175      4.203383     -1.749641    -0.001992    0.010433   -0.010434
            12    0      -2.273382      5.546217     -3.092477     0.013364    0.007524   -0.007525
 Energy
        -57.354224558865
 PlusStress:  xx          yy          zz          yz          xz          xy
        -1.37928    -0.88397    -0.88396     0.38174    -0.00002     0.00001
 Feature   ID	2
 Feature   MV_grade	2.631354
 Feature   rank	2
END_CFG

BEGIN_CFG
 Size
    12
 Supercell
         0.000000      2.453892      2.453893
         0.000888      5.805565     -5.805565
        -6.819184      0.000533     -0.000533
 AtomData:  id type       cartes_x      cartes_y      cartes_z           fx          fy          fz
             1    1      -0.945286      7.939774     -3.031997     0.060889    0.000345   -0.000341
             2    1      -4.111855      2.514618     -0.060728    -0.060890   -0.000346    0.000343
             3    1      -0.702065      3.810031     -1.356139    -0.060891    0.000352   -0.000352
             4    1      -4.355077      6.644362     -1.736580     0.060889   -0.000350    0.000351
             5    0      -2.784198      4.908156     -0.000375    -0.013272   -0.007537    0.007538
             6    0      -0.016087      3.797126     -3.797126     0.001663   -0.010508    0.010508
             7    0      -5.682375      6.584218     -4.130328     0.013269   -0.007540    0.007539
             8    0      -3.426244      2.527414      2.380362     0.001664    0.010509   -0.010507
             9    0      -1.631785      2.121408      0.332478    -0.001667   -0.010507    0.010507
            10    0      -6.193955      3.870708      1.037073    -0.013264    0.007539   -0.007538
            11    0      -5.041057      4.203378     -1.749486    -0.001661    0.010507   -0.010508
            12    0      -2.272944      5.546236     -3.092345     0.013270    0.007537   -0.007539
 Energy
        -57.354475773923
 PlusStress:  xx          yy          zz          yz          xz          xy
        -1.37404    -0.88358    -0.88358     0.38090    -0.00001     0.00001
 Feature   ID	2
 Feature   MV_grade	2.631430
 Feature   rank	2
END_CFG

BEGIN_CFG
 Size
    12
 Supercell
         0.000000      2.453968      2.453968
         0.000888      5.805556     -5.805556
        -6.818885      0.000533     -0.000533
 AtomData:  id type       cartes_x      cartes_y      cartes_z           fx          fy          fz
             1    1      -0.945193      7.939903     -3.031976     0.060999    0.000274   -0.000271
             2    1      -4.111726      2.514592     -0.060626    -0.061001   -0.000276    0.000273
             3    1      -0.702085      3.810126     -1.356160    -0.061001    0.000282   -0.000282