BEGIN_CFG
 Size
    6
 Supercell
        -1.591690      1.591520      1.641560
         3.138920      3.139150      0.000071
        -3.069180      3.069060     -6.143750
 AtomData:  id type       cartes_x      cartes_y      cartes_z           fx          fy          fz
             1    1      -4.549140      4.588240     -4.540560    -0.005027    0.004870    0.049278
             2    0       0.104660      3.073820      0.036580    -0.614812    0.613580    0.241850
             3    0      -1.340050      1.379180     -1.500510     0.246653   -0.244512   -0.143448
             4    0      -0.156940      3.335500     -2.876120     0.088327   -0.089186   -0.339791
             5    0      -3.082450      3.121610     -2.993780    -0.200719    0.201422    0.251081
             6    0      -1.548060      4.726440     -4.709260     0.485576   -0.486173   -0.058971
 Energy
        -44.493305890000
 PlusStress:  xx          yy          zz          yz          xz          xy
         0.00000     0.00000     0.00000     0.00000     0.00000     0.00000
 Feature   ID	1
 Feature   MV_grade	4.186823
 Feature   rank	1
END_CFG

BEGIN_CFG
 Size
    6
 Supercell
        -1.591690      1.591520      1.641560
         3.138920      3.139150      0.000071
        -3.069180      3.069060     -6.143750
 AtomData:  id type       cartes_x      cartes_y      cartes_z           fx          fy          fz
             1    1      -4.549140      4.588240     -4.540560    -0.008842    0.008949   -0.024585
             2    0       0.104660      3.073820      0.036580     0.262930   -0.262950    0.230604
             3    0      -1.340050      1.379180     -1.500510     0.065411   -0.065464    0.329283
             4    0      -0.156940      3.335500     -2.876120    -0.006581    0.006630    0.005188
             5    0      -3.082450      3.121610     -2.993780    -0.095271    0.095262   -0.358614
             6    0      -1.548060      4.726440     -4.709260    -0.217647    0.217573   -0.181875
 Energy
        -24.803356658465
 PlusStress:  xx          yy          zz          yz          xz          xy
        -0.04770    -0.04778    -0.15811     0.16036    -0.16041    -0.40172
 Feature   ID	1
 Feature   MV_grade	4.186823
 Feature   rank	1
END_CFG

BEGIN_CFG
 Size
    6
 Supercell
        -1.598581      1.598411      1.634331
         3.134060      3.134290      0.000070
        -3.067431      3.067311     -6.139175
 AtomData:  id type       cartes_x      cartes_y      cartes_z           fx          fy          fz
             1    1      -4.554889      4.593938     -4.545364    -0.008842    0.008949   -0.024585
             2    0       0.124512      3.049044      0.055890     0.262930   -0.262950    0.230604
             3    0      -1.334773      1.373837     -1.468033     0.065411   -0.065464    0.329283
             4    0      -0.160067      3.333710     -2.874233    -0.006581    0.006630    0.005188
             5    0      -3.095402      3.134500     -3.031366    -0.095271    0.095262   -0.358614
             6    0      -1.573064      4.746515     -4.725913    -0.217647    0.217573   -0.181875
 Energy
        -24.803356658465
 PlusStress:  xx          yy          zz          yz          xz          xy
        -0.04770    -0.04778    -0.15811     0.16036    -0.16041    -0.40172
 Feature   ID	1
 Feature   MV_grade	6.802244
 Feature   rank	1
END_CFG

