BEGIN_CFG
 Size
    128
 Supercell
        14.080000      0.000000      0.000000
         0.000000     14.080000      0.000000
         0.000000      0.000000     14.080000
 AtomData:  id type       cartes_x      cartes_y      cartes_z           fx          fy          fz
             1    0      13.852870      0.589510      0.410540     0.249963   -0.385291    0.012919
             2    0       2.058660      2.144680      1.575190    -0.391983    0.160803    0.168084
             3    0       0.093140      0.126810      3.985180    -0.273653    0.161465   -0.234787
             4    0       2.273620      1.620460      5.053360    -0.178287    0.295202   -0.039355
             5    0       0.164150     14.014780      7.303020     0.367346    0.051479   -0.545486
             6    0       2.383660      1.632010      8.089460     0.044261   -0.032525    0.256753
             7    0       0.479840      0.289820     10.081640    -0.142822   -0.018213    0.316130
             8    0       1.674910      1.902780     12.206560     0.064087    0.086465    0.093278
             9    0      13.690300      3.447520     13.688220     0.350159    0.390175    0.184665
            10    0       1.415810      4.989320      1.671580     0.084640    0.144610   -0.025371
            11    0       0.167370      3.735720      3.755740    -0.153326   -0.321212    0.041552
            12    0       2.196390      5.336580      5.251910    -0.346900   -0.410080    0.332330
            13    0      14.008790      3.094150      6.625850     0.024604    0.072492    0.111926
            14    0       1.740380      4.985120      8.097970     0.170176    0.025816    0.277209
            15    0      14.055320      3.217430      9.998860     0.006614    0.173065   -0.062292
            16    0       1.845000      5.154080     11.739600     0.043765    0.082814    0.091303
            17    0      14.045000      6.732570     13.923730     0.015047    0.089517    0.051620
            18    0       1.581500      8.297310      2.081470    -0.217399    0.291164   -0.033019
            19    0       0.043250      6.576430      3.869430    -0.281641    0.257911   -0.066026
            20    0       1.766380      8.761590      5.175980     0.006315   -0.099479    0.219894
            21    0      13.922460      6.982040      6.878570     0.263792   -0.112868    0.045923
            22    0       2.125550      9.190420      8.723800     0.016899   -0.239051   -0.081999
            23    0       0.188770      7.379450     10.073620     0.032698   -0.301044   -0.062817
            24    0       1.756300      8.606710     12.415460     0.036467   -0.029091   -0.062413
            25    0      13.957420      9.863410      0.105700     0.059443    0.368842   -0.236590
            26    0       1.395490     12.262090      1.850330    -0.324524   -0.144266   -0.071936
            27    0      13.911450     10.611200      3.917500     0.228544   -0.167196    0.081313
            28    0       1.838960     12.415520      5.000330    -0.248866   -0.174747    0.012538
            29    0       0.210950     10.743270      7.024600     0.026440    0.043847   -0.097819
            30    0       1.931250     12.042670      9.299600     0.138737    0.116188   -0.156688
            31    0      13.871820     10.285360     10.095140     0.081826    0.185240    0.440204
            32    0       1.514150     12.192230     12.834660     0.067199    0.055937   -0.264349
            33    0       3.194090      0.213500     14.035600     0.156776   -0.237529   -0.058055
            34    0       5.168900      2.056970      1.541890     0.222091   -0.338371   -0.078915
            35    0       2.931720     14.032220      2.792120     0.534546    0.025934    0.378902
            36    0       5.189100      1.575430      4.711630    -0.157574   -0.178772    0.227971
            37    0       3.778410     13.563670      6.228580     0.071041    0.156561    0.320617
            38    0       5.556270      1.469540      8.784940    -0.459199   -0.118344    0.019004
            39    0       3.691710     14.070640     10.909960    -0.111593   -0.033007   -0.070153
            40    0       5.142370      1.874550     12.595580     0.013337    0.129922    0.070644
            41    0       3.600730      3.854530      0.057720    -0.163568    0.012670   -0.332946
            42    0       5.801060      5.070970      1.363140    -0.163655   -0.091600    0.313078
            43    0       4.105370      3.692810      3.412620    -0.461100    0.238824   -0.091465
            44    0       5.095420      5.340490      5.491140     0.567062    0.318574   -0.229034
            45    0       4.085290      3.404530      6.652350    -0.389179   -0.320712    0.188647
            46    0       5.027180      5.103780      8.945100     0.184644    0.314104   -0.235414
            47    0       3.969230      3.296350     10.378220    -0.394532   -0.235612    0.113277
            48    0       5.386500      5.225770     12.336700    -0.070074    0.257744    0.052215
            49    0       3.437560      6.894820      0.450480     0.060338   -0.021556   -0.145129
            50    0       5.322840      8.950820      2.138670    -0.092187   -0.213015   -0.083509
            51    0       3.268160      6.748140      3.605050     0.511689    0.212105   -0.379886
            52    0       5.351060      8.662410      5.209050     0.038394    0.074568   -0.001681
            53    0       3.848780      7.156870      7.095950    -0.255214   -0.037692    0.044456
            54    0       5.078690      8.978350      8.819350     0.168956    0.294981    0.036553
            55    0       4.023790      7.376210     10.520590    -0.363793   -0.364453    0.138543
            56    0       5.176840      8.543760     12.838100     0.153668   -0.100826    0.268455
            57    0       2.993960     10.533100      0.643140     0.319125   -0.323198   -0.259106
            58    0       5.026630     12.214900      1.959240     0.124179    0.146290   -0.118015
            59    0       3.462000     10.556810      3.627600    -0.121595   -0.058427   -0.014551
            60    0       5.882610     11.927640      4.820110    -0.562163    0.057154    0.130998
            61    0       3.673900     10.712600      6.578110    -0.021632   -0.132880    0.263085
            62    0       5.104320     12.234360      8.963240    -0.028369    0.072687    0.133668
            63    0       3.798540     10.329340     11.272140    -0.285970    0.219463   -0.242537
            64    0       5.088290     12.193280     12.911200     0.001434    0.046645    0.007381
            65    0       7.014440     14.045060      0.120410     0.074074    0.120362    0.250228
            66    0       9.416130      2.099340      2.006130    -0.408592   -0.085775   -0.364141
            67    0       6.916880      0.066780      3.359440     0.068349   -0.015902   -0.463607
            68    0       8.359440      1.779990      5.025940     0.421131   -0.263951    0.591885
            69    0       6.496240     13.961950      6.603640     0.323986    0.027040    0.238574
            70    0       8.146440      1.670580      9.137670     0.414954   -0.169630   -0.069381
            71    0       6.868920      0.151720     11.405350    -0.379125   -0.301306   -0.539085
            72    0       8.756950      1.604850     12.166450     0.483389   -0.016447    0.158665
            73    0       7.546710      3.455710     13.515260    -0.150922    0.207599    0.489849
            74    0       9.115960      5.164430      1.863980    -0.154712    0.072369    0.057094
            75    0       7.051290      3.206280      3.671080    -0.148087    0.731101   -0.497617
            76    0       8.299900      5.404650      5.406830     0.204141   -0.077511    0.192436
            77    0       6.700640      3.551690      7.224770     0.434492   -0.079894   -0.080412
            78    0       8.964670      5.368410      8.882740    -0.300232   -0.346756   -0.248238
            79    0       6.947510      3.509030     10.805900     0.079273    0.097201   -0.292476
            80    0       9.134660      5.803990     11.817500    -0.061266   -0.138483    0.265759
            81    0       7.327690      6.916520      0.409810     0.116546    0.300269   -0.460133
            82    0       8.849270      8.707210      2.040030     0.327022    0.000132   -0.199845
            83    0       7.002470      6.920650      3.567530    -0.018497    0.018929   -0.142629
            84    0       8.740760      9.056370      5.130470    -0.010385   -0.229264    0.371411
            85    0       7.175450      7.460140      7.512160    -0.083526   -0.100610   -0.284845
            86    0       8.957520      9.006210      9.412630    -0.080919    0.116788   -0.255378
            87    0       7.074070      6.902860     10.249540    -0.224788    0.183365    0.329566
            88    0       9.206650      8.975180     12.393250    -0.251461    0.032671   -0.044005
            89    0       6.934870     10.460840      0.366920     0.206825    0.057418   -0.120288
            90    0       9.118500     12.451240      1.642030    -0.278901   -0.169643    0.007563
            91    0       7.463710     10.543060      3.496590    -0.184608    0.013128   -0.443735
            92    0       8.602510     12.674220      4.841710     0.145820   -0.235464    0.273181
            93    0       6.639720     10.604960      7.239720     0.369832   -0.011140   -0.202685
            94    0       8.305010     12.066730      9.248340    -0.107649    0.309511    0.053346
            95    0       6.777370     10.100190     11.013770    -0.062114    0.138300   -0.065501
            96    0       8.571800     12.218480     12.346480     0.231158   -0.077046    0.075577
            97    0      10.727830      0.058710     13.916340    -0.016343    0.104373    0.089728
            98    0      12.326190      2.363510      1.852390    -0.118866    0.036776    0.255946
            99    0      10.386690      0.029470      3.483070     0.284474    0.058889   -0.042637
           100    0      11.911720      1.446150      5.352240    -0.043043    0.242948    0.000621
           101    0       9.561160     14.062720      7.066210     0.229473    0.060216    0.246519
           102    0      12.208680      1.523420      8.413070     0.001845   -0.092438    0.179630
           103    0      10.639370      0.084170     10.567310    -0.167902   -0.124993   -0.172463
           104    0      12.465650      1.775660     12.130950    -0.155994   -0.120340   -0.234254
           105    0      10.557320      3.920310     13.649810     0.138005   -0.142311   -0.012521
           106    0      12.094980      5.478170      1.782420     0.175299   -0.142944    0.069911
           107    0      10.313460      3.787110      4.036010     0.108493   -0.167777   -0.054861
           108    0      11.953100      5.127570      5.556520     0.251627    0.050829    0.204956
           109    0      10.271660      3.056760      7.395610    -0.266713    0.264823   -0.317671
           110    0      11.965040      5.370640      8.584520     0.480104   -0.399023   -0.120354
           111    0      10.403260      3.249330     10.389850     0.126879    0.156058    0.126390
           112    0      12.565540      5.435940     11.860740    -0.144655   -0.107058   -0.193124
           113    0      10.678070      7.266230     13.991070     0.102741   -0.181530    0.196097
           114    0      12.470400      8.856490      1.928080    -0.292325   -0.273033    0.304347
           115    0      10.615820      7.051080      3.874560    -0.112321    0.025461   -0.129832
           116    0      12.305420      8.763280      5.495430    -0.111548    0.192126   -0.295567
           117    0      10.294210      7.206950      7.016850    -0.095418    0.027851   -0.089214
           118    0      12.402090      8.863850      8.258830    -0.276334    0.150626    0.223351
           119    0      10.711540      7.087050      9.947720     0.114832    0.319884    0.342009
           120    0      12.204480      8.454130     11.940450     0.127103    0.236294    0.032150
           121    0      10.920240     10.827840     14.010140     0.071287   -0.078736    0.009843
           122    0      12.543520     12.121940      2.311370    -0.123844    0.471280   -0.469960
           123    0      10.631900     10.792140      3.640470    -0.085103   -0.189985    0.133592
           124    0      11.906880     12.694100      5.759100     0.166531   -0.220678   -0.137317
           125    0       9.977190     10.927900      7.150540     0.158267   -0.182203   -0.032280
           126    0      12.578330     12.566730      8.713630    -0.276562   -0.142505    0.108107
           127    0      10.908770     11.039920     10.455180    -0.117663   -0.210360    0.138904
           128    0      12.793090     12.759220     12.171560     0.028330   -0.119944   -0.005677
 Energy
       -234.905962950000
 PlusStress:  xx          yy          zz          yz          xz          xy
        -7.86480    -6.54050    -7.77823    -2.33263     0.06137    -0.72280
 Feature   MV_grade	 1.031831
 Feature   from	database:TS.cfg
END_CFG

