BEGIN_CFG
 Size
    128
 Supercell
        14.080000      0.000000      0.000000
         0.000000     14.080000      0.000000
         0.000000      0.000000     14.080000
 AtomData:  id type       cartes_x      cartes_y      cartes_z           fx          fy          fz
             1    0      13.852900      0.589510      0.410540     0.333855   -0.642908    0.233997
             2    0       2.058660      2.144680      1.575190    -0.606972    0.180082    0.365140
             3    0       0.093140      0.126810      3.985180    -0.539658    0.359876   -0.227277
             4    0       2.273620      1.620460      5.053360    -0.292493    0.629907   -0.107699
             5    0       0.164150     14.014800      7.303020     0.633345    0.009638   -0.778042
             6    0       2.383660      1.632010      8.089460     0.169847   -0.101905    0.366240
             7    0       0.479840      0.289820     10.081600    -0.141126   -0.030722    0.623715
             8    0       1.674910      1.902780     12.206600     0.084295    0.136602    0.137118
             9    0      13.690300      3.447520     13.688200     0.498451    0.535826    0.240666
            10    0       1.415810      4.989320      1.671580     0.076595    0.059887   -0.115597
            11    0       0.167370      3.735720      3.755740    -0.208655   -0.516300    0.021827
            12    0       2.196390      5.336580      5.251910    -0.517924   -0.578527    0.398374
            13    0      14.008800      3.094150      6.625850     0.013037    0.133125    0.114347
            14    0       1.740380      4.985120      8.097970     0.221982    0.087173    0.370801
            15    0      14.055300      3.217430      9.998860    -0.046456    0.247689   -0.182745
            16    0       1.845000      5.154080     11.739600     0.143917    0.154883    0.141374
            17    0      14.045000      6.732570     13.923700     0.029279    0.034291    0.045742
            18    0       1.581500      8.297310      2.081470    -0.325053    0.473268    0.063976
            19    0       0.043250      6.576430      3.869430    -0.639451    0.401773   -0.040177
            20    0       1.766380      8.761590      5.175980    -0.012605   -0.095853    0.361944
            21    0      13.922500      6.982040      6.878570     0.452489   -0.183994    0.055203
            22    0       2.125550      9.190420      8.723800     0.058557   -0.322115   -0.174697
            23    0       0.188770      7.379450     10.073600     0.169757   -0.463135   -0.044179
            24    0       1.756300      8.606710     12.415500    -0.003237   -0.015710   -0.138935
            25    0      13.957400      9.863410      0.105700    -0.122429    0.435502   -0.367454
            26    0       1.395490     12.262100      1.850330    -0.494371   -0.278807   -0.218731
            27    0      13.911500     10.611200      3.917500     0.336286   -0.265937    0.168420
            28    0       1.838960     12.415500      5.000330    -0.355230   -0.181538    0.166018
            29    0       0.210950     10.743300      7.024600     0.088632    0.100762   -0.300094
            30    0       1.931250     12.042700      9.299600     0.320464    0.145710   -0.153609
            31    0      13.871800     10.285400     10.095100     0.092480    0.309842    0.824692
            32    0       1.514150     12.192200     12.834700     0.002877    0.177642   -0.497524
            33    0       3.194090      0.213500     14.035600     0.221011   -0.408400   -0.218737
            34    0       5.168900      2.056970      1.541890     0.480809   -0.577878   -0.280431
            35    0       2.931720     14.032200      2.792120     0.938101    0.055074    0.380713
            36    0       5.189100      1.575430      4.711630    -0.405029   -0.391439    0.349321
            37    0       3.778410     13.563700      6.228580    -0.003591    0.124671    0.535891
            38    0       5.556270      1.469540      8.784940    -0.536295   -0.345973   -0.021228
            39    0       3.691710     14.070600     10.910000    -0.126374   -0.098164   -0.183741
            40    0       5.142370      1.874550     12.595600    -0.105967    0.212490    0.139090
            41    0       3.600730      3.854530      0.057720    -0.346981    0.097714   -0.606574
            42    0       5.801060      5.070970      1.363140    -0.155909    0.041758    0.501843
            43    0       4.105370      3.692810      3.412620    -0.660425    0.417748   -0.182286
            44    0       5.095420      5.340490      5.491140     0.843772    0.424879   -0.208462
            45    0       4.085290      3.404530      6.652350    -0.364417   -0.508925    0.240665
            46    0       5.027180      5.103780      8.945100     0.154428    0.444175   -0.207253
            47    0       3.969230      3.296350     10.378200    -0.569887   -0.240868    0.032999
            48    0       5.386500      5.225770     12.336700    -0.135506    0.446947    0.114604
            49    0       3.437560      6.894820      0.450480     0.146401    0.078373   -0.177331
            50    0       5.322840      8.950820      2.138670    -0.131538   -0.405598   -0.089237
            51    0       3.268160      6.748140      3.605050     0.790862    0.167225   -0.616781
            52    0       5.351060      8.662410      5.209050     0.039333   -0.015403   -0.083405
            53    0       3.848780      7.156870      7.095950    -0.323209    0.022245    0.058129
            54    0       5.078690      8.978350      8.819350     0.183050    0.450486    0.101467
            55    0       4.023790      7.376210     10.520600    -0.500969   -0.621929    0.141725
            56    0       5.176840      8.543760     12.838100     0.276805   -0.227383    0.451030
            57    0       2.993960     10.533100      0.643140     0.394920   -0.443913   -0.353478
            58    0       5.026630     12.214900      1.959240     0.181380    0.454922   -0.113895
            59    0       3.462000     10.556800      3.627600    -0.143365   -0.164006    0.013369
            60    0       5.882610     11.927600      4.820110    -0.666627   -0.085802    0.061278
            61    0       3.673900     10.712600      6.578110    -0.106313   -0.144303    0.410759
            62    0       5.104320     12.234400      8.963240    -0.056158    0.156288    0.262912
            63    0       3.798540     10.329300     11.272100    -0.489501    0.484385   -0.219312
            64    0       5.088290     12.193300     12.911200    -0.138575   -0.039742    0.029738
            65    0       7.014440     14.045100      0.120410     0.105466    0.193873    0.595520
            66    0       9.416130      2.099340      2.006130    -0.472804   -0.214470   -0.677094
            67    0       6.916880      0.066780      3.359440    -0.026967   -0.075155   -0.944046
            68    0       8.359440      1.779990      5.025940     0.545395   -0.037693    0.904565
            69    0       6.496240     13.961900      6.603640     0.333521    0.096778    0.528970
            70    0       8.146440      1.670580      9.137670     0.425434   -0.278758   -0.154278
            71    0       6.868920      0.151720     11.405400    -0.494783   -0.531459   -0.701542
            72    0       8.756950      1.604850     12.166400     0.718974   -0.076320    0.347142
            73    0       7.546710      3.455710     13.515300    -0.091427    0.165016    0.698803
            74    0       9.115960      5.164430      1.863980    -0.182270    0.028784    0.115569
            75    0       7.051290      3.206280      3.671080    -0.013890    0.990325   -0.523849
            76    0       8.299900      5.404650      5.406830     0.189785   -0.048641    0.275660
            77    0       6.700640      3.551690      7.224770     0.691024   -0.075809   -0.170466
            78    0       8.964670      5.368410      8.882740    -0.615524   -0.706835   -0.458738
            79    0       6.947510      3.509030     10.805900     0.200511    0.344658   -0.392525
            80    0       9.134660      5.803990     11.817500    -0.125407   -0.182975    0.447735
            81    0       7.327690      6.916520      0.409810     0.135072    0.376536   -0.721188
            82    0       8.849270      8.707210      2.040030     0.589135   -0.012507   -0.425844
            83    0       7.002470      6.920650      3.567530    -0.110586   -0.073041   -0.052520
            84    0       8.740760      9.056370      5.130470    -0.112092   -0.227632    0.651697
            85    0       7.175450      7.460140      7.512160    -0.104179   -0.123577   -0.379299
            86    0       8.957520      9.006210      9.412630     0.032260    0.153439   -0.305664
            87    0       7.074070      6.902860     10.249500    -0.336381    0.243996    0.459716
            88    0       9.206650      8.975180     12.393300    -0.413722    0.103093   -0.000089
            89    0       6.934870     10.460800      0.366920     0.247258    0.058058   -0.176327
            90    0       9.118500     12.451200      1.642030    -0.437110   -0.226169   -0.116230
            91    0       7.463710     10.543100      3.496590    -0.285686    0.000215   -0.496557
            92    0       8.602510     12.674200      4.841710     0.327207   -0.303992    0.385706
            93    0       6.639720     10.605000      7.239720     0.607192   -0.052708   -0.304474
            94    0       8.305010     12.066700      9.248340    -0.214871    0.571540    0.040127
            95    0       6.777370     10.100200     11.013800    -0.022114    0.153078   -0.086516
            96    0       8.571800     12.218500     12.346500     0.367798   -0.244514    0.000445
            97    0      10.727800      0.058710     13.916300    -0.073836    0.231411    0.167260
            98    0      12.326200      2.363510      1.852390    -0.162690    0.048500    0.477266
            99    0      10.386700      0.029470      3.483070     0.463100    0.141826   -0.185317
           100    0      11.911700      1.446150      5.352240    -0.070641    0.273397   -0.200761
           101    0       9.561160     14.062700      7.066210     0.225440    0.044043    0.474096
           102    0      12.208700      1.523420      8.413070    -0.150066   -0.017008    0.267963
           103    0      10.639400      0.084170     10.567300    -0.219270   -0.215697   -0.416339
           104    0      12.465700      1.775660     12.131000    -0.272972   -0.111980   -0.401232
           105    0      10.557300      3.920310     13.649800     0.149651   -0.161578   -0.080941
           106    0      12.095000      5.478170      1.782420     0.239190   -0.205476    0.092101
           107    0      10.313500      3.787110      4.036010     0.358502   -0.183331    0.111984
           108    0      11.953100      5.127570      5.556520     0.282017   -0.127126    0.316820
           109    0      10.271700      3.056760      7.395610    -0.413872    0.355806   -0.483165
           110    0      11.965000      5.370640      8.584520     0.794272   -0.535693   -0.061784
           111    0      10.403300      3.249330     10.389800     0.188135    0.266673    0.315049
           112    0      12.565500      5.435940     11.860700    -0.127820   -0.187998   -0.292615
           113    0      10.678100      7.266230     13.991100     0.157333   -0.136587    0.257350
           114    0      12.470400      8.856490      1.928080    -0.385943   -0.431314    0.326663
           115    0      10.615800      7.051080      3.874560    -0.063133    0.201935   -0.230763
           116    0      12.305400      8.763280      5.495430    -0.206948    0.378861   -0.496123
           117    0      10.294200      7.206950      7.016850    -0.345309    0.061619   -0.304550
           118    0      12.402100      8.863850      8.258830    -0.412915    0.343752    0.219156
           119    0      10.711500      7.087050      9.947720     0.300979    0.556549    0.509200
           120    0      12.204500      8.454130     11.940500     0.106219    0.321433    0.015229
           121    0      10.920200     10.827800     14.010100     0.093308   -0.127841   -0.007812
           122    0      12.543500     12.121900      2.311370    -0.133446    0.751735   -0.608251
           123    0      10.631900     10.792100      3.640470     0.099514   -0.305096    0.195103
           124    0      11.906900     12.694100      5.759100     0.270863   -0.412247   -0.129834
           125    0       9.977190     10.927900      7.150540     0.204966   -0.306833   -0.159005
           126    0      12.578300     12.566700      8.713630    -0.522113   -0.225040    0.055114
           127    0      10.908800     11.039900     10.455200    -0.150115   -0.312674    0.224821
           128    0      12.793100     12.759200     12.171600     0.216660   -0.256837    0.052682
 Energy
       -194.410562010000
 PlusStress:  xx          yy          zz          yz          xz          xy
        37.39960    40.33786    37.70957     0.62196    -1.04661    -1.57099
 Feature   EFS_by	VASP
END_CFG

