BEGIN_CFG
Size
   16
SuperCell
        0.000000     10.020000     10.020000
       10.020000      0.000000     10.020000
       10.020000     10.020000      0.000000
AtomData:  id type       cartes_x      cartes_y      cartes_z
		    1   26       0.248357     -0.069132      0.323844
		    2   27       3.266515      2.387923      2.387932
		    3   26       5.799606      5.393717     -0.234737
		    4   27       7.786280      7.283291      2.272135
		    5   26       5.130981     -0.956640      4.147541
		    6   27       7.233856      1.998584      7.672124
		    7   26       9.565988      4.303848      5.742824
		    8   27      12.412112      7.548764      6.802626
		    9   26      -0.272191      5.065461      4.434503
		   10   27       2.692849      7.214681      7.369153
		   11   26       4.709147     10.946139      5.003251
		   12   27       6.986145     12.936272      6.904578
		   13   26       5.114432      4.030165      9.355907
		   14   27       7.613431      7.884233     12.610684
		   15   26       9.962176      9.869448      9.280739
		   16   27      12.165078     12.294681     13.053561
END_CFG

