BEGIN_CFG
Size
   16
SuperCell
        0.000000     10.020000     10.020000
       10.020000      0.000000     10.020000
       10.020000     10.020000      0.000000
AtomData:  id type       cartes_x      cartes_y      cartes_z
		    1   26       0.248357     -0.069132      0.323844
		    2   27       3.266515      2.387923      2.387932
		    3   26       6.630066      6.176626      0.804722
		    4   27       6.959127      6.493458      1.224624
		    5   26       6.129007     -1.429645      3.519795
		    6   27       7.417246      3.043122      7.505861
		    7   26       7.282987      3.658730      7.604318
		    8   27      12.412112      7.548764      6.802626
		    9   26      -0.275337      5.069610      4.431796
		   10   27       2.692849      7.214681      7.369153
		   11   26       4.628830     11.988355      4.992864
		   12   27       5.129469     12.272970      5.405896
		   13   26       7.214043      3.630746      7.660676
		   14   27       6.618550      8.353090     13.241138
		   15   26       9.962176      9.869448      9.280739
		   16   27      14.098764     11.922693     14.570681
END_CFG

