BEGIN_CFG
 Size
    128
 Supercell
        14.080000      0.000000      0.000000
         0.000000     14.080000      0.000000
         0.000000      0.000000     14.080000
 AtomData:  id type       cartes_x      cartes_y      cartes_z           fx          fy          fz
             1    0       0.000000      0.000000      0.000000    -0.000001   -0.000000   -0.000001
             2    0       1.760000      1.760000      1.760000    -0.000001    0.000002    0.000001
             3    0       0.000000      0.000000      3.520000    -0.000001    0.000000    0.000002
             4    0       1.760000      1.760000      5.280000    -0.000001    0.000001    0.000002
             5    0       0.000000      0.000000      7.040000    -0.000001   -0.000000    0.000001
             6    0       1.760000      1.760000      8.800000    -0.000001    0.000001   -0.000000
             7    0       0.000000      0.000000     10.560000    -0.000000   -0.000000   -0.000002
             8    0       1.760000      1.760000     12.320000    -0.000001    0.000001   -0.000003
             9    0       0.000000      3.520000      0.000000    -0.000001    0.000002   -0.000000
            10    0       1.760000      5.280000      1.760000    -0.000001    0.000001    0.000001
            11    0       0.000000      3.520000      3.520000    -0.000001    0.000002    0.000001
            12    0       1.760000      5.280000      5.280000    -0.000000    0.000001    0.000002
            13    0       0.000000      3.520000      7.040000    -0.000000    0.000002    0.000001
            14    0       1.760000      5.280000      8.800000    -0.000000    0.000001   -0.000001
            15    0       0.000000      3.520000     10.560000    -0.000000    0.000001   -0.000002
            16    0       1.760000      5.280000     12.320000    -0.000001    0.000001   -0.000002
            17    0       0.000000      7.040000      0.000000    -0.000001   -0.000000   -0.000001
            18    0       1.760000      8.800000      1.760000    -0.000000   -0.000001    0.000001
            19    0       0.000000      7.040000      3.520000    -0.000001   -0.000000    0.000002
            20    0       1.760000      8.800000      5.280000    -0.000000   -0.000001    0.000002
            21    0       0.000000      7.040000      7.040000    -0.000000    0.000000    0.000001
            22    0       1.760000      8.800000      8.800000     0.000000   -0.000001   -0.000001
            23    0       0.000000      7.040000     10.560000    -0.000001   -0.000000   -0.000002
            24    0       1.760000      8.800000     12.320000    -0.000001   -0.000000   -0.000002
            25    0       0.000000     10.560000      0.000000    -0.000001   -0.000001   -0.000001
            26    0       1.760000     12.320000      1.760000    -0.000001   -0.000002    0.000001
            27    0       0.000000     10.560000      3.520000    -0.000001   -0.000002    0.000002
            28    0       1.760000     12.320000      5.280000    -0.000001   -0.000002    0.000002
            29    0       0.000000     10.560000      7.040000    -0.000001   -0.000002    0.000000
            30    0       1.760000     12.320000      8.800000    -0.000001   -0.000001   -0.000000
            31    0       0.000000     10.560000     10.560000    -0.000000   -0.000001   -0.000001
            32    0       1.760000     12.320000     12.320000    -0.000001   -0.000002   -0.000003
            33    0       3.520000      0.000000      0.000000    -0.000000   -0.000000   -0.000001
            34    0       5.280000      1.760000      1.760000     0.000000    0.000002    0.000001
            35    0       3.520000      0.000000      3.520000    -0.000000    0.000000    0.000002
            36    0       5.280000      1.760000      5.280000     0.000000    0.000002    0.000002
            37    0       3.520000      0.000000      7.040000    -0.000000   -0.000000    0.000001
            38    0       5.280000      1.760000      8.800000    -0.000000    0.000001   -0.000001
            39    0       3.520000      0.000000     10.560000    -0.000001   -0.000000   -0.000002
            40    0       5.280000      1.760000     12.320000     0.000000    0.000001   -0.000002
            41    0       3.520000      3.520000      0.000000    -0.000000    0.000002   -0.000000
            42    0       5.280000      5.280000      1.760000     0.000001    0.000002    0.000002
            43    0       3.520000      3.520000      3.520000    -0.000000    0.000002    0.000002
            44    0       5.280000      5.280000      5.280000     0.000000    0.000001    0.000002
            45    0       3.520000      3.520000      7.040000    -0.000000    0.000002    0.000001
            46    0       5.280000      5.280000      8.800000     0.000000    0.000001   -0.000001
            47    0       3.520000      3.520000     10.560000    -0.000001    0.000001   -0.000002
            48    0       5.280000      5.280000     12.320000     0.000001    0.000001   -0.000002
            49    0       3.520000      7.040000      0.000000     0.000000    0.000000   -0.000001
            50    0       5.280000      8.800000      1.760000     0.000001   -0.000001    0.000001
            51    0       3.520000      7.040000      3.520000     0.000000    0.000000    0.000002
            52    0       5.280000      8.800000      5.280000     0.000000   -0.000001    0.000002
            53    0       3.520000      7.040000      7.040000    -0.000000    0.000000    0.000001
            54    0       5.280000      8.800000      8.800000     0.000000   -0.000001   -0.000001
            55    0       3.520000      7.040000     10.560000     0.000000    0.000001   -0.000003
            56    0       5.280000      8.800000     12.320000     0.000000   -0.000001   -0.000002
            57    0       3.520000     10.560000      0.000000    -0.000000   -0.000002   -0.000001
            58    0       5.280000     12.320000      1.760000     0.000000   -0.000002    0.000001
            59    0       3.520000     10.560000      3.520000     0.000000   -0.000002    0.000002
            60    0       5.280000     12.320000      5.280000     0.000000   -0.000002    0.000002
            61    0       3.520000     10.560000      7.040000    -0.000000   -0.000002    0.000001
            62    0       5.280000     12.320000      8.800000    -0.000000   -0.000002   -0.000001
            63    0       3.520000     10.560000     10.560000    -0.000001   -0.000002   -0.000002
            64    0       5.280000     12.320000     12.320000    -0.000000   -0.000002   -0.000002
            65    0       7.040000      0.000000      0.000000     0.000001   -0.000000   -0.000001
            66    0       8.800000      1.760000      1.760000     0.000001    0.000001    0.000001
            67    0       7.040000      0.000000      3.520000     0.000000   -0.000001    0.000002
            68    0       8.800000      1.760000      5.280000     0.000000    0.000001    0.000002
            69    0       7.040000      0.000000      7.040000     0.000000   -0.000000    0.000000
            70    0       8.800000      1.760000      8.800000     0.000000    0.000002   -0.000001
            71    0       7.040000      0.000000     10.560000     0.000000    0.000000   -0.000002
            72    0       8.800000      1.760000     12.320000     0.000001    0.000002   -0.000002
            73    0       7.040000      3.520000      0.000000     0.000001    0.000002   -0.000001
            74    0       8.800000      5.280000      1.760000     0.000001    0.000002    0.000001
            75    0       7.040000      3.520000      3.520000     0.000000    0.000002    0.000002
            76    0       8.800000      5.280000      5.280000     0.000000    0.000001    0.000002
            77    0       7.040000      3.520000      7.040000     0.000000    0.000002    0.000001
            78    0       8.800000      5.280000      8.800000     0.000000    0.000002   -0.000000
            79    0       7.040000      3.520000     10.560000     0.000001    0.000002   -0.000002
            80    0       8.800000      5.280000     12.320000     0.000001    0.000001   -0.000002
            81    0       7.040000      7.040000      0.000000     0.000001   -0.000000   -0.000000
            82    0       8.800000      8.800000      1.760000     0.000001   -0.000001    0.000001
            83    0       7.040000      7.040000      3.520000     0.000001   -0.000000    0.000002
            84    0       8.800000      8.800000      5.280000     0.000001   -0.000001    0.000001
            85    0       7.040000      7.040000      7.040000     0.000001    0.000000    0.000001
            86    0       8.800000      8.800000      8.800000     0.000000   -0.000002   -0.000000
            87    0       7.040000      7.040000     10.560000     0.000001    0.000000   -0.000002
            88    0       8.800000      8.800000     12.320000     0.000001   -0.000001   -0.000002
            89    0       7.040000     10.560000      0.000000     0.000001   -0.000002   -0.000000
            90    0       8.800000     12.320000      1.760000     0.000001   -0.000002    0.000001
            91    0       7.040000     10.560000      3.520000     0.000001   -0.000002    0.000002
            92    0       8.800000     12.320000      5.280000     0.000001   -0.000002    0.000002
            93    0       7.040000     10.560000      7.040000     0.000000   -0.000002    0.000000
            94    0       8.800000     12.320000      8.800000     0.000001   -0.000002   -0.000001
            95    0       7.040000     10.560000     10.560000     0.000001   -0.000002   -0.000002
            96    0       8.800000     12.320000     12.320000     0.000001   -0.000002   -0.000002
            97    0      10.560000      0.000000      0.000000     0.000001   -0.000000   -0.000001
            98    0      12.320000      1.760000      1.760000    -0.000000    0.000002    0.000001
            99    0      10.560000      0.000000      3.520000     0.000001   -0.000001    0.000002
           100    0      12.320000      1.760000      5.280000     0.000000    0.000001    0.000001
           101    0      10.560000      0.000000      7.040000     0.000001   -0.000001    0.000000
           102    0      12.320000      1.760000      8.800000     0.000000    0.000001   -0.000001
           103    0      10.560000      0.000000     10.560000     0.000001   -0.000000   -0.000001
           104    0      12.320000      1.760000     12.320000    -0.000000    0.000001   -0.000001
           105    0      10.560000      3.520000      0.000000     0.000001    0.000002   -0.000001
           106    0      12.320000      5.280000      1.760000    -0.000000    0.000001    0.000001
           107    0      10.560000      3.520000      3.520000     0.000001    0.000002    0.000001
           108    0      12.320000      5.280000      5.280000    -0.000000    0.000001    0.000001
           109    0      10.560000      3.520000      7.040000     0.000000    0.000002    0.000001
           110    0      12.320000      5.280000      8.800000    -0.000000    0.000001   -0.000001
           111    0      10.560000      3.520000     10.560000     0.000000    0.000002   -0.000001
           112    0      12.320000      5.280000     12.320000    -0.000001    0.000001   -0.000001
           113    0      10.560000      7.040000      0.000000    -0.000000   -0.000001   -0.000001
           114    0      12.320000      8.800000      1.760000    -0.000001   -0.000001    0.000001
           115    0      10.560000      7.040000      3.520000     0.000000    0.000000    0.000002
           116    0      12.320000      8.800000      5.280000    -0.000000   -0.000001    0.000002
           117    0      10.560000      7.040000      7.040000    -0.000000    0.000000    0.000001
           118    0      12.320000      8.800000      8.800000    -0.000001   -0.000001   -0.000001
           119    0      10.560000      7.040000     10.560000    -0.000000   -0.000000   -0.000002
           120    0      12.320000      8.800000     12.320000    -0.000001   -0.000001   -0.000002
           121    0      10.560000     10.560000      0.000000     0.000000   -0.000002   -0.000001
           122    0      12.320000     12.320000      1.760000    -0.000001   -0.000001    0.000001
           123    0      10.560000     10.560000      3.520000     0.000000   -0.000002    0.000002
           124    0      12.320000     12.320000      5.280000    -0.000000   -0.000001    0.000002
           125    0      10.560000     10.560000      7.040000     0.000000   -0.000002    0.000000
           126    0      12.320000     12.320000      8.800000     0.000000   -0.000002   -0.000001
           127    0      10.560000     10.560000     10.560000     0.000000   -0.000002   -0.000001
           128    0      12.320000     12.320000     12.320000    -0.000000   -0.000001   -0.000002
 Energy
       -242.474345820000
 PlusStress:  xx          yy          zz          yz          xz          xy
       -15.96725   -15.96724   -15.96724     0.00000    -0.00000    -0.00000
 Feature   from	 database:Li_NVT300.cfg
END_CFG

BEGIN_CFG
 Size
    128
 Supercell
        14.080000      0.000000      0.000000
         0.000000     14.080000      0.000000
         0.000000      0.000000     14.080000
 AtomData:  id type       cartes_x      cartes_y      cartes_z           fx          fy          fz
             1    0      13.776770      0.054300     13.951260     0.077457    0.069072    0.203973
             2    0       1.586360      1.909750      1.597380     0.136893   -0.176600    0.136319
             3    0       0.255340     14.039390      3.667240    -0.253485    0.301925   -0.088265
             4    0       2.210220      1.754510      5.323860    -0.154022   -0.063660   -0.075217
             5    0       0.050060      0.243290      7.257750     0.211728   -0.003642   -0.263650
             6    0       2.017230      2.067410      8.787550     0.207038   -0.187401   -0.120754
             7    0       0.325840      0.279470     10.318910    -0.112426   -0.141584    0.096763
             8    0       2.037370      1.748580     12.320180    -0.111439    0.064529    0.105740
             9    0       0.012780      3.357790     13.840270    -0.283408    0.021750    0.051769
            10    0       1.670020      5.431600      1.379180    -0.105056   -0.406207    0.077728
            11    0      13.843290      3.371690      3.515480     0.235748    0.080324    0.061008
            12    0       1.852640      4.935020      5.446360    -0.142000    0.226972   -0.192565
            13    0      14.068740      3.397290      7.228260     0.025904    0.101190   -0.143901
            14    0       1.950910      5.162520      8.947250    -0.079473    0.031880   -0.017520
            15    0       0.200070      3.416260     10.434720    -0.166370   -0.033989    0.092937
            16    0       1.601970      5.092600     12.250480     0.169973    0.103137    0.109195
            17    0      13.770680      6.994940      0.107700    -0.063123    0.121722   -0.195356
            18    0       1.465020      8.731120      1.809350    -0.073268   -0.193828   -0.048615
            19    0      14.031010      6.613150      3.472630    -0.066825    0.034241    0.025891
            20    0       1.605650      8.615350      4.912370     0.117270   -0.085598    0.295099
            21    0       0.110590      6.777470      7.105720    -0.016317    0.052982    0.050800
            22    0       2.086120      8.817470      8.562320    -0.340474   -0.091495    0.299481
            23    0       0.031160      7.012110     10.556090     0.026517   -0.023464   -0.140849
            24    0       1.342430      8.775830     12.419260     0.170787    0.048296   -0.041104
            25    0       0.114970     10.674890      0.206950    -0.296509    0.052997   -0.126841
            26    0       1.614190     12.507670      1.782720     0.041876   -0.025592   -0.147659
            27    0       0.014740     10.708030      3.459110     0.060184   -0.096314    0.234848
            28    0       1.755580     12.332830      5.232960     0.186448    0.016390    0.132764
            29    0       0.204990     10.521460      6.953260     0.011303    0.109828    0.024596
            30    0       1.939720     12.514910      8.504680     0.041293   -0.037559    0.102288
            31    0       0.525130     10.822920     10.501480    -0.372210   -0.126856   -0.252275
            32    0       1.573940     12.452430     12.352320     0.241458    0.134212    0.173202
            33    0       3.663770     13.912030      0.010260    -0.111740    0.170027    0.043113
            34    0       5.442170      1.800690      1.960030     0.021103   -0.018524   -0.102275
            35    0       3.638990     13.966390      3.141910    -0.057574    0.170448    0.319888
            36    0       5.609020      1.985280      5.320100    -0.244641    0.057556    0.020132
            37    0       4.012440     14.026600      7.039500    -0.199118    0.093845   -0.045191
            38    0       5.410010      1.897700      9.021350    -0.000600   -0.039658   -0.127626
            39    0       3.505250      0.129120     10.557300     0.061712   -0.109031   -0.066484
            40    0       5.454620      1.695090     12.336790    -0.021395    0.127162    0.060381
            41    0       3.728120      3.430310      0.297810    -0.096028    0.046311   -0.333954
            42    0       5.441410      5.297080      1.579740    -0.121892    0.204709    0.214391
            43    0       3.574970      3.782190      3.328480    -0.074827   -0.216993    0.046848
            44    0       5.453770      5.258650      5.033380    -0.086033    0.014082    0.088491
            45    0       3.648640      3.676080      7.025750     0.321214   -0.087581    0.122382
            46    0       5.249360      5.247440      9.101910     0.013309    0.261219   -0.171095
            47    0       3.889920      3.569190     10.666380    -0.372157   -0.084087    0.157653
            48    0       5.243480      5.375700     12.370060     0.055599    0.096565    0.139539
            49    0       3.215760      7.152990     13.899120     0.156109   -0.050279    0.102998
            50    0       5.171810      8.722700      1.738210    -0.089696   -0.026937    0.010958
            51    0       3.315520      6.806330      3.148770     0.075131    0.047593    0.123022
            52    0       4.921980      8.388770      5.050570     0.117832    0.196429    0.048563
            53    0       3.587590      6.874340      7.258180     0.093638   -0.050573   -0.233013
            54    0       5.419540      8.631940      9.146990    -0.375498   -0.005004   -0.247985
            55    0       3.300540      7.070530     10.700910     0.050383    0.040469   -0.021158
            56    0       5.076530      8.848800     12.297440     0.107939    0.055007    0.113498
            57    0       3.205250     10.387890      0.217100     0.109607    0.172953   -0.271901
            58    0       5.201720     12.086430      1.746650     0.136029    0.023824   -0.029701
            59    0       3.153960     10.450920      3.257590     0.187147    0.101129    0.164340
            60    0       5.183990     12.074210      5.072490    -0.030007    0.109775    0.083840
            61    0       3.479880     10.429410      6.997010     0.229682    0.100867   -0.140618
            62    0       5.260930     12.338880      9.090430     0.097696   -0.134516   -0.216607
            63    0       3.423940     10.693220     10.627250     0.002608   -0.124912   -0.024423
            64    0       5.260640     12.421580     12.196610     0.092135   -0.144964    0.109108
            65    0       6.978540     14.066950      0.051510     0.064317   -0.107045    0.088062
            66    0       8.904950      1.692450      1.688340    -0.111180    0.059501    0.098347
            67    0       7.121480      0.093700      3.708590    -0.065307   -0.215429   -0.146331
            68    0       8.705000      1.839830      5.447910     0.041195    0.057868    0.070582
            69    0       6.954590      0.093460      7.131850     0.053834   -0.124252    0.072795
            70    0       8.713870      1.752580      8.864020    -0.265732    0.107329   -0.058904
            71    0       7.151310      0.052230     10.524510    -0.140597   -0.243169   -0.093275
            72    0       8.671920      1.561130     12.187680     0.118679    0.109535    0.177756
            73    0       7.144800      3.716930      0.211330    -0.001531   -0.320199   -0.353399
            74    0       8.685080      5.410160      1.682990     0.308927    0.104038    0.026074
            75    0       7.303000      3.441380      3.489520    -0.106911    0.133551   -0.130641
            76    0       8.579660      5.297740      5.307380     0.242423    0.048194    0.039840
            77    0       7.078230      3.895920      7.397110    -0.143000   -0.282907   -0.193636
            78    0       8.763520      5.469370      8.903770     0.132611    0.090524   -0.001299
            79    0       7.171200      3.781480     10.655440     0.050415   -0.179005    0.146307
            80    0       8.951760      5.516720     12.443080    -0.199918   -0.012904   -0.118363
            81    0       6.964030      7.255040      0.083620     0.153941    0.051159   -0.216513
            82    0       9.140060      8.821970      1.766010    -0.237807    0.137543   -0.003641
            83    0       7.196990      7.051760      3.439070    -0.086882    0.083490   -0.071037
            84    0       8.717170      8.735190      5.294020     0.065227   -0.015577    0.076765
            85    0       7.097380      7.034330      6.946640    -0.225837    0.055841    0.211105
            86    0       8.867800      8.903460      8.787800     0.018215   -0.167992   -0.115239
            87    0       7.067310      7.035050     10.549790     0.075255   -0.000320    0.213514
            88    0       8.784070      8.994180     12.112060     0.209777   -0.143637    0.164414
            89    0       7.143020     10.620150      0.018950    -0.076953   -0.113156    0.036881
            90    0       8.915150     12.397920      1.851570    -0.162495   -0.234674    0.109373
            91    0       6.821950     10.354840      3.490360     0.239782   -0.049418    0.005480
            92    0       8.422760     12.203930      5.588690     0.149090   -0.059021   -0.114723
            93    0       6.817410     10.256710      7.249430    -0.124066    0.088355   -0.228428
            94    0       8.714900     12.002400      8.790220    -0.242673    0.228935   -0.142466
            95    0       6.997720     10.327230     10.581750    -0.072478    0.261673    0.000635
            96    0       8.741590     12.133020     12.158140     0.084080    0.158384    0.066946
            97    0      10.404280     13.936720      0.085120     0.208895    0.040913   -0.267919
            98    0      12.031950      1.769580      1.939730     0.059134   -0.148390   -0.081698
            99    0      10.315190     14.069260      3.856760     0.000699    0.001792   -0.057183
           100    0      12.278260      1.624440      5.479370    -0.147497    0.164348   -0.046949
           101    0      10.285900      0.051770      7.354480     0.091220   -0.126684   -0.319950
           102    0      12.268990      1.728050      8.855560    -0.102098    0.036822   -0.060073
           103    0      10.339750     13.999730     10.279780     0.116158   -0.050064    0.182447
           104    0      12.229440      1.752100     11.914620    -0.032181   -0.012953    0.189148
           105    0      10.278890      3.472110     13.774910     0.229169   -0.097317    0.140575
           106    0      12.179850      5.010300      1.550450    -0.064236    0.036929    0.011373
           107    0      10.328340      3.757380      3.498970     0.078108   -0.201948    0.058110
           108    0      12.195490      5.115480      5.317620     0.123558   -0.142407    0.151294
           109    0      10.180810      3.607370      7.236030     0.288152   -0.029133   -0.144762
           110    0      12.215140      5.027360      8.998990     0.105442    0.094040   -0.110998
           111    0      10.335740      3.322060     10.371070    -0.032510    0.230160    0.200930
           112    0      12.264550      5.247080     12.050690    -0.018705   -0.067300    0.154039
           113    0      10.556350      7.227930     14.057700     0.198032   -0.039317   -0.063224
           114    0      12.262330      8.898930      2.120250     0.118945   -0.092428   -0.179245
           115    0      10.770730      6.957470      3.709740    -0.184401    0.037994   -0.092913
           116    0      12.624420      8.783630      5.423450    -0.095773   -0.057102   -0.179145
           117    0      10.849790      6.974470      7.117610    -0.168191    0.109717    0.027107
           118    0      12.621650      9.023210      8.930290    -0.034009   -0.113338   -0.112722
           119    0      10.498580      7.101870     10.494100     0.181936    0.115495    0.019687
           120    0      12.379020      9.081950     12.093590     0.023111   -0.098193   -0.027001
           121    0      10.991800     10.713380     13.899920    -0.239355    0.018439    0.152991
           122    0      12.176360     12.126710      2.217170    -0.049092    0.364945   -0.275842
           123    0      10.430730     10.442750      3.782200     0.021584    0.168723    0.062072
           124    0      12.365690     12.565380      5.269560     0.043944   -0.144299    0.153692
           125    0      10.730130     10.564900      6.839680    -0.083469   -0.041960    0.141892
           126    0      12.411300     12.431870      8.454300     0.075438   -0.070992    0.232094
           127    0      10.580010     10.736260     10.162570     0.202698   -0.067979    0.293072
           128    0      12.419260     12.626790     11.979500    -0.031944   -0.200147   -0.127316
 Energy
       -239.251520450000
 PlusStress:  xx          yy          zz          yz          xz          xy
       -12.50263   -12.32982   -12.21485     0.63214     0.41759     0.15770
 Feature   from	 database:Li_NVT300.cfg
END_CFG

BEGIN_CFG
 Size
    128
 Supercell
        14.080000      0.000000      0.000000
         0.000000     14.080000      0.000000
         0.000000      0.000000     14.080000
 AtomData:  id type       cartes_x      cartes_y      cartes_z           fx          fy          fz
             1    0      14.056190     13.965180      0.177900    -0.045970    0.154220    0.259129
             2    0       1.849890      1.765700      1.759570    -0.078050   -0.066806    0.085293
             3    0       0.217560      0.253860      3.988730    -0.062157    0.034101   -0.260188
             4    0       1.965200      2.447440      5.349920     0.007154   -0.622365   -0.442917
             5    0       0.081630      0.441720      6.895970     0.341605    0.005811   -0.137268
             6    0       1.982890      0.854200      8.928950     0.391741    0.433652   -0.248200
             7    0       0.213820     14.014510     10.204190    -0.326051   -0.172225    0.190373
             8    0       1.525640      1.762190     12.612340     0.157708   -0.156802   -0.242870
             9    0      13.760920      2.983250      0.144180    -0.057520    0.224461   -0.079115
            10    0       1.495190      4.809520      1.588990    -0.193712   -0.064558    0.208760
            11    0      13.577120      2.995130      3.540430     0.501935    0.299487   -0.005196
            12    0       1.634930      4.959510      5.092710    -0.026022    0.369892   -0.299234
            13    0       0.461950      3.324350      7.555570    -0.233883    0.005743   -0.170145
            14    0       1.639990      5.486560      8.996490    -0.067017   -0.293838    0.363489
            15    0      13.663470      3.161610     10.300810     0.276332    0.010403    0.252377
            16    0       1.608070      5.006180     12.247340     0.035527   -0.025460   -0.028135
            17    0       0.454040      6.855760     14.025640    -0.380189    0.087941    0.021059
            18    0       1.673410      8.794160      1.623330    -0.167044    0.068734   -0.067925
            19    0      13.952070      6.967650      3.297910     0.086497    0.044685    0.044063
            20    0       1.049500      8.813710      5.921680    -0.016778   -0.106474   -0.194655
            21    0       0.026060      6.421400      6.815050    -0.050076    0.005257    0.203082
            22    0       1.416390      8.185910      9.002320     0.119158    0.497414    0.118465
            23    0      13.526550      6.943870     10.792630     0.303353   -0.021678   -0.181730
            24    0       2.350730      8.744860     12.798920    -0.581049    0.100339   -0.148735
            25    0      14.048320     11.117990      0.146800     0.043692   -0.203963    0.125233
            26    0       1.608160     12.137400      2.424360    -0.098212    0.411082   -0.052929
            27    0      13.949740     10.887020      4.100400     0.239161   -0.232630    0.089932
            28    0       2.002760     12.672060      5.320210     0.039291    0.026602    0.241478
            29    0       0.097200     11.429010      7.489390     0.132617   -0.279964   -0.200952
            30    0       2.577780     11.992190      8.911260    -0.181024    0.448257   -0.286759
            31    0      14.008150     10.472550     10.275470     0.058809    0.219958   -0.007369